   3   3   1   0
  0.8177464E+02  0.3366159E-09  0.3366159E-09  0.2500000E-08  0.5000000E-15
  1.000000000000000E-004
  CAR 
 unknown system                          
     14.63550478    -80.15188539 2001     -1.47761103      1.00000000
    -80.152  0.0000E+00  0.0000E+00
    -80.104  0.0000E+00  0.0000E+00
    -80.057  0.0000E+00  0.0000E+00
    -80.010  0.0000E+00  0.0000E+00
    -79.962  0.0000E+00  0.0000E+00
    -79.915  0.0000E+00  0.0000E+00
    -79.868  0.0000E+00  0.0000E+00
    -79.820  0.0000E+00  0.0000E+00
    -79.773  0.0000E+00  0.0000E+00
    -79.725  0.0000E+00  0.0000E+00
    -79.678  0.0000E+00  0.0000E+00
    -79.631  0.0000E+00  0.0000E+00
    -79.583  0.0000E+00  0.0000E+00
    -79.536  0.0000E+00  0.0000E+00
    -79.488  0.0000E+00  0.0000E+00
    -79.441  0.0000E+00  0.0000E+00
    -79.394  0.0000E+00  0.0000E+00
    -79.346  0.0000E+00  0.0000E+00
    -79.299  0.0000E+00  0.0000E+00
    -79.251  0.0000E+00  0.0000E+00
    -79.204  0.0000E+00  0.0000E+00
    -79.157  0.0000E+00  0.0000E+00
    -79.109  0.0000E+00  0.0000E+00
    -79.062  0.0000E+00  0.0000E+00
    -79.014  0.0000E+00  0.0000E+00
    -78.967  0.0000E+00  0.0000E+00
    -78.920  0.0000E+00  0.0000E+00
    -78.872  0.0000E+00  0.0000E+00
    -78.825  0.0000E+00  0.0000E+00
    -78.777  0.0000E+00  0.0000E+00
    -78.730  0.0000E+00  0.0000E+00
    -78.683  0.0000E+00  0.0000E+00
    -78.635  0.0000E+00  0.0000E+00
    -78.588  0.0000E+00  0.0000E+00
    -78.540  0.0000E+00  0.0000E+00
    -78.493  0.0000E+00  0.0000E+00
    -78.446  0.0000E+00  0.0000E+00
    -78.398  0.0000E+00  0.0000E+00
    -78.351  0.0000E+00  0.0000E+00
    -78.304  0.0000E+00  0.0000E+00
    -78.256  0.0000E+00  0.0000E+00
    -78.209  0.0000E+00  0.0000E+00
    -78.161  0.0000E+00  0.0000E+00
    -78.114  0.0000E+00  0.0000E+00
    -78.067  0.0000E+00  0.0000E+00
    -78.019  0.0000E+00  0.0000E+00
    -77.972  0.0000E+00  0.0000E+00
    -77.924  0.0000E+00  0.0000E+00
    -77.877  0.0000E+00  0.0000E+00
    -77.830  0.0000E+00  0.0000E+00
    -77.782  0.0000E+00  0.0000E+00
    -77.735  0.0000E+00  0.0000E+00
    -77.687  0.0000E+00  0.0000E+00
    -77.640  0.0000E+00  0.0000E+00
    -77.593  0.0000E+00  0.0000E+00
    -77.545  0.0000E+00  0.0000E+00
    -77.498  0.0000E+00  0.0000E+00
    -77.450  0.0000E+00  0.0000E+00
    -77.403  0.0000E+00  0.0000E+00
    -77.356  0.0000E+00  0.0000E+00
    -77.308  0.0000E+00  0.0000E+00
    -77.261  0.0000E+00  0.0000E+00
    -77.213  0.0000E+00  0.0000E+00
    -77.166  0.0000E+00  0.0000E+00
    -77.119  0.0000E+00  0.0000E+00
    -77.071  0.0000E+00  0.0000E+00
    -77.024  0.0000E+00  0.0000E+00
    -76.977  0.0000E+00  0.0000E+00
    -76.929  0.0000E+00  0.0000E+00
    -76.882  0.0000E+00  0.0000E+00
    -76.834  0.0000E+00  0.0000E+00
    -76.787  0.0000E+00  0.0000E+00
    -76.740  0.0000E+00  0.0000E+00
    -76.692  0.0000E+00  0.0000E+00
    -76.645  0.0000E+00  0.0000E+00
    -76.597  0.0000E+00  0.0000E+00
    -76.550  0.0000E+00  0.0000E+00
    -76.503  0.0000E+00  0.0000E+00
    -76.455  0.0000E+00  0.0000E+00
    -76.408  0.0000E+00  0.0000E+00
    -76.360  0.0000E+00  0.0000E+00
    -76.313  0.0000E+00  0.0000E+00
    -76.266  0.0000E+00  0.0000E+00
    -76.218  0.0000E+00  0.0000E+00
    -76.171  0.0000E+00  0.0000E+00
    -76.123  0.1653E-13  0.7832E-15
    -76.076  0.3850E-09  0.1825E-10
    -76.029  0.1554E-05  0.7368E-07
    -75.981  0.1105E-02  0.5245E-04
    -75.934  0.1422E+00  0.6793E-02
    -75.886  0.3464E+01  0.1710E+00
    -75.839  0.1697E+02  0.9751E+00
    -75.792  0.1759E+02  0.1809E+01
    -75.744  0.3864E+01  0.1992E+01
    -75.697  0.1710E+00  0.2000E+01
    -75.649  0.1434E-02  0.2000E+01
    -75.602  0.2173E-05  0.2000E+01
    -75.555  0.5788E-09  0.2000E+01
    -75.507  0.2681E-13  0.2000E+01
    -75.460  0.0000E+00  0.2000E+01
    -75.413  0.0000E+00  0.2000E+01
    -75.365  0.0000E+00  0.2000E+01
    -75.318  0.0000E+00  0.2000E+01
    -75.270  0.0000E+00  0.2000E+01
    -75.223  0.0000E+00  0.2000E+01
    -75.176  0.0000E+00  0.2000E+01
    -75.128  0.0000E+00  0.2000E+01
    -75.081  0.0000E+00  0.2000E+01
    -75.033  0.0000E+00  0.2000E+01
    -74.986  0.0000E+00  0.2000E+01
    -74.939  0.0000E+00  0.2000E+01
    -74.891  0.0000E+00  0.2000E+01
    -74.844  0.0000E+00  0.2000E+01
    -74.796  0.0000E+00  0.2000E+01
    -74.749  0.0000E+00  0.2000E+01
    -74.702  0.0000E+00  0.2000E+01
    -74.654  0.0000E+00  0.2000E+01
    -74.607  0.0000E+00  0.2000E+01
    -74.559  0.0000E+00  0.2000E+01
    -74.512  0.0000E+00  0.2000E+01
    -74.465  0.0000E+00  0.2000E+01
    -74.417  0.0000E+00  0.2000E+01
    -74.370  0.0000E+00  0.2000E+01
    -74.322  0.0000E+00  0.2000E+01
    -74.275  0.0000E+00  0.2000E+01
    -74.228  0.0000E+00  0.2000E+01
    -74.180  0.0000E+00  0.2000E+01
    -74.133  0.0000E+00  0.2000E+01
    -74.085  0.0000E+00  0.2000E+01
    -74.038  0.0000E+00  0.2000E+01
    -73.991  0.0000E+00  0.2000E+01
    -73.943  0.0000E+00  0.2000E+01
    -73.896  0.0000E+00  0.2000E+01
    -73.849  0.0000E+00  0.2000E+01
    -73.801  0.0000E+00  0.2000E+01
    -73.754  0.0000E+00  0.2000E+01
    -73.706  0.0000E+00  0.2000E+01
    -73.659  0.0000E+00  0.2000E+01
    -73.612  0.0000E+00  0.2000E+01
    -73.564  0.0000E+00  0.2000E+01
    -73.517  0.0000E+00  0.2000E+01
    -73.469  0.0000E+00  0.2000E+01
    -73.422  0.0000E+00  0.2000E+01
    -73.375  0.0000E+00  0.2000E+01
    -73.327  0.0000E+00  0.2000E+01
    -73.280  0.0000E+00  0.2000E+01
    -73.232  0.0000E+00  0.2000E+01
    -73.185  0.0000E+00  0.2000E+01
    -73.138  0.0000E+00  0.2000E+01
    -73.090  0.0000E+00  0.2000E+01
    -73.043  0.0000E+00  0.2000E+01
    -72.995  0.0000E+00  0.2000E+01
    -72.948  0.0000E+00  0.2000E+01
    -72.901  0.0000E+00  0.2000E+01
    -72.853  0.0000E+00  0.2000E+01
    -72.806  0.0000E+00  0.2000E+01
    -72.758  0.0000E+00  0.2000E+01
    -72.711  0.0000E+00  0.2000E+01
    -72.664  0.0000E+00  0.2000E+01
    -72.616  0.0000E+00  0.2000E+01
    -72.569  0.0000E+00  0.2000E+01
    -72.522  0.0000E+00  0.2000E+01
    -72.474  0.0000E+00  0.2000E+01
    -72.427  0.0000E+00  0.2000E+01
    -72.379  0.0000E+00  0.2000E+01
    -72.332  0.0000E+00  0.2000E+01
    -72.285  0.0000E+00  0.2000E+01
    -72.237  0.0000E+00  0.2000E+01
    -72.190  0.0000E+00  0.2000E+01
    -72.142  0.0000E+00  0.2000E+01
    -72.095  0.0000E+00  0.2000E+01
    -72.048  0.0000E+00  0.2000E+01
    -72.000  0.0000E+00  0.2000E+01
    -71.953  0.0000E+00  0.2000E+01
    -71.905  0.0000E+00  0.2000E+01
    -71.858  0.0000E+00  0.2000E+01
    -71.811  0.0000E+00  0.2000E+01
    -71.763  0.0000E+00  0.2000E+01
    -71.716  0.0000E+00  0.2000E+01
    -71.668  0.0000E+00  0.2000E+01
    -71.621  0.0000E+00  0.2000E+01
    -71.574  0.0000E+00  0.2000E+01
    -71.526  0.0000E+00  0.2000E+01
    -71.479  0.0000E+00  0.2000E+01
    -71.431  0.0000E+00  0.2000E+01
    -71.384  0.0000E+00  0.2000E+01
    -71.337  0.0000E+00  0.2000E+01
    -71.289  0.0000E+00  0.2000E+01
    -71.242  0.0000E+00  0.2000E+01
    -71.194  0.0000E+00  0.2000E+01
    -71.147  0.0000E+00  0.2000E+01
    -71.100  0.0000E+00  0.2000E+01
    -71.052  0.0000E+00  0.2000E+01
    -71.005  0.0000E+00  0.2000E+01
    -70.958  0.0000E+00  0.2000E+01
    -70.910  0.0000E+00  0.2000E+01
    -70.863  0.0000E+00  0.2000E+01
    -70.815  0.0000E+00  0.2000E+01
    -70.768  0.0000E+00  0.2000E+01
    -70.721  0.0000E+00  0.2000E+01
    -70.673  0.0000E+00  0.2000E+01
    -70.626  0.0000E+00  0.2000E+01
    -70.578  0.0000E+00  0.2000E+01
    -70.531  0.0000E+00  0.2000E+01
    -70.484  0.0000E+00  0.2000E+01
    -70.436  0.0000E+00  0.2000E+01
    -70.389  0.0000E+00  0.2000E+01
    -70.341  0.0000E+00  0.2000E+01
    -70.294  0.0000E+00  0.2000E+01
    -70.247  0.0000E+00  0.2000E+01
    -70.199  0.0000E+00  0.2000E+01
    -70.152  0.0000E+00  0.2000E+01
    -70.104  0.0000E+00  0.2000E+01
    -70.057  0.0000E+00  0.2000E+01
    -70.010  0.0000E+00  0.2000E+01
    -69.962  0.0000E+00  0.2000E+01
    -69.915  0.0000E+00  0.2000E+01
    -69.867  0.0000E+00  0.2000E+01
    -69.820  0.0000E+00  0.2000E+01
    -69.773  0.0000E+00  0.2000E+01
    -69.725  0.0000E+00  0.2000E+01
    -69.678  0.0000E+00  0.2000E+01
    -69.630  0.0000E+00  0.2000E+01
    -69.583  0.0000E+00  0.2000E+01
    -69.536  0.0000E+00  0.2000E+01
    -69.488  0.0000E+00  0.2000E+01
    -69.441  0.0000E+00  0.2000E+01
    -69.394  0.0000E+00  0.2000E+01
    -69.346  0.0000E+00  0.2000E+01
    -69.299  0.0000E+00  0.2000E+01
    -69.251  0.0000E+00  0.2000E+01
    -69.204  0.0000E+00  0.2000E+01
    -69.157  0.0000E+00  0.2000E+01
    -69.109  0.0000E+00  0.2000E+01
    -69.062  0.0000E+00  0.2000E+01
    -69.014  0.0000E+00  0.2000E+01
    -68.967  0.0000E+00  0.2000E+01
    -68.920  0.0000E+00  0.2000E+01
    -68.872  0.0000E+00  0.2000E+01
    -68.825  0.0000E+00  0.2000E+01
    -68.777  0.0000E+00  0.2000E+01
    -68.730  0.0000E+00  0.2000E+01
    -68.683  0.0000E+00  0.2000E+01
    -68.635  0.0000E+00  0.2000E+01
    -68.588  0.0000E+00  0.2000E+01
    -68.540  0.0000E+00  0.2000E+01
    -68.493  0.0000E+00  0.2000E+01
    -68.446  0.0000E+00  0.2000E+01
    -68.398  0.0000E+00  0.2000E+01
    -68.351  0.0000E+00  0.2000E+01
    -68.303  0.0000E+00  0.2000E+01
    -68.256  0.0000E+00  0.2000E+01
    -68.209  0.0000E+00  0.2000E+01
    -68.161  0.0000E+00  0.2000E+01
    -68.114  0.0000E+00  0.2000E+01
    -68.066  0.0000E+00  0.2000E+01
    -68.019  0.0000E+00  0.2000E+01
    -67.972  0.0000E+00  0.2000E+01
    -67.924  0.0000E+00  0.2000E+01
    -67.877  0.0000E+00  0.2000E+01
    -67.830  0.0000E+00  0.2000E+01
    -67.782  0.0000E+00  0.2000E+01
    -67.735  0.0000E+00  0.2000E+01
    -67.687  0.0000E+00  0.2000E+01
    -67.640  0.0000E+00  0.2000E+01
    -67.593  0.0000E+00  0.2000E+01
    -67.545  0.0000E+00  0.2000E+01
    -67.498  0.0000E+00  0.2000E+01
    -67.450  0.0000E+00  0.2000E+01
    -67.403  0.0000E+00  0.2000E+01
    -67.356  0.0000E+00  0.2000E+01
    -67.308  0.0000E+00  0.2000E+01
    -67.261  0.0000E+00  0.2000E+01
    -67.213  0.0000E+00  0.2000E+01
    -67.166  0.0000E+00  0.2000E+01
    -67.119  0.0000E+00  0.2000E+01
    -67.071  0.0000E+00  0.2000E+01
    -67.024  0.0000E+00  0.2000E+01
    -66.976  0.0000E+00  0.2000E+01
    -66.929  0.0000E+00  0.2000E+01
    -66.882  0.0000E+00  0.2000E+01
    -66.834  0.0000E+00  0.2000E+01
    -66.787  0.0000E+00  0.2000E+01
    -66.739  0.0000E+00  0.2000E+01
    -66.692  0.0000E+00  0.2000E+01
    -66.645  0.0000E+00  0.2000E+01
    -66.597  0.0000E+00  0.2000E+01
    -66.550  0.0000E+00  0.2000E+01
    -66.503  0.0000E+00  0.2000E+01
    -66.455  0.0000E+00  0.2000E+01
    -66.408  0.0000E+00  0.2000E+01
    -66.360  0.0000E+00  0.2000E+01
    -66.313  0.0000E+00  0.2000E+01
    -66.266  0.0000E+00  0.2000E+01
    -66.218  0.0000E+00  0.2000E+01
    -66.171  0.0000E+00  0.2000E+01
    -66.123  0.0000E+00  0.2000E+01
    -66.076  0.0000E+00  0.2000E+01
    -66.029  0.0000E+00  0.2000E+01
    -65.981  0.0000E+00  0.2000E+01
    -65.934  0.0000E+00  0.2000E+01
    -65.886  0.0000E+00  0.2000E+01
    -65.839  0.0000E+00  0.2000E+01
    -65.792  0.0000E+00  0.2000E+01
    -65.744  0.0000E+00  0.2000E+01
    -65.697  0.0000E+00  0.2000E+01
    -65.649  0.0000E+00  0.2000E+01
    -65.602  0.0000E+00  0.2000E+01
    -65.555  0.0000E+00  0.2000E+01
    -65.507  0.0000E+00  0.2000E+01
    -65.460  0.0000E+00  0.2000E+01
    -65.412  0.0000E+00  0.2000E+01
    -65.365  0.0000E+00  0.2000E+01
    -65.318  0.0000E+00  0.2000E+01
    -65.270  0.0000E+00  0.2000E+01
    -65.223  0.0000E+00  0.2000E+01
    -65.175  0.0000E+00  0.2000E+01
    -65.128  0.0000E+00  0.2000E+01
    -65.081  0.0000E+00  0.2000E+01
    -65.033  0.0000E+00  0.2000E+01
    -64.986  0.0000E+00  0.2000E+01
    -64.939  0.0000E+00  0.2000E+01
    -64.891  0.0000E+00  0.2000E+01
    -64.844  0.0000E+00  0.2000E+01
    -64.796  0.0000E+00  0.2000E+01
    -64.749  0.0000E+00  0.2000E+01
    -64.702  0.0000E+00  0.2000E+01
    -64.654  0.0000E+00  0.2000E+01
    -64.607  0.0000E+00  0.2000E+01
    -64.559  0.0000E+00  0.2000E+01
    -64.512  0.0000E+00  0.2000E+01
    -64.465  0.0000E+00  0.2000E+01
    -64.417  0.0000E+00  0.2000E+01
    -64.370  0.0000E+00  0.2000E+01
    -64.322  0.0000E+00  0.2000E+01
    -64.275  0.0000E+00  0.2000E+01
    -64.228  0.0000E+00  0.2000E+01
    -64.180  0.0000E+00  0.2000E+01
    -64.133  0.0000E+00  0.2000E+01
    -64.085  0.0000E+00  0.2000E+01
    -64.038  0.0000E+00  0.2000E+01
    -63.991  0.0000E+00  0.2000E+01
    -63.943  0.0000E+00  0.2000E+01
    -63.896  0.0000E+00  0.2000E+01
    -63.848  0.0000E+00  0.2000E+01
    -63.801  0.0000E+00  0.2000E+01
    -63.754  0.0000E+00  0.2000E+01
    -63.706  0.0000E+00  0.2000E+01
    -63.659  0.0000E+00  0.2000E+01
    -63.611  0.0000E+00  0.2000E+01
    -63.564  0.0000E+00  0.2000E+01
    -63.517  0.0000E+00  0.2000E+01
    -63.469  0.0000E+00  0.2000E+01
    -63.422  0.0000E+00  0.2000E+01
    -63.375  0.0000E+00  0.2000E+01
    -63.327  0.0000E+00  0.2000E+01
    -63.280  0.0000E+00  0.2000E+01
    -63.232  0.0000E+00  0.2000E+01
    -63.185  0.0000E+00  0.2000E+01
    -63.138  0.0000E+00  0.2000E+01
    -63.090  0.0000E+00  0.2000E+01
    -63.043  0.0000E+00  0.2000E+01
    -62.995  0.0000E+00  0.2000E+01
    -62.948  0.0000E+00  0.2000E+01
    -62.901  0.0000E+00  0.2000E+01
    -62.853  0.0000E+00  0.2000E+01
    -62.806  0.0000E+00  0.2000E+01
    -62.758  0.0000E+00  0.2000E+01
    -62.711  0.0000E+00  0.2000E+01
    -62.664  0.0000E+00  0.2000E+01
    -62.616  0.0000E+00  0.2000E+01
    -62.569  0.0000E+00  0.2000E+01
    -62.521  0.0000E+00  0.2000E+01
    -62.474  0.0000E+00  0.2000E+01
    -62.427  0.0000E+00  0.2000E+01
    -62.379  0.0000E+00  0.2000E+01
    -62.332  0.0000E+00  0.2000E+01
    -62.284  0.0000E+00  0.2000E+01
    -62.237  0.0000E+00  0.2000E+01
    -62.190  0.0000E+00  0.2000E+01
    -62.142  0.0000E+00  0.2000E+01
    -62.095  0.0000E+00  0.2000E+01
    -62.047  0.0000E+00  0.2000E+01
    -62.000  0.0000E+00  0.2000E+01
    -61.953  0.0000E+00  0.2000E+01
    -61.905  0.0000E+00  0.2000E+01
    -61.858  0.0000E+00  0.2000E+01
    -61.811  0.0000E+00  0.2000E+01
    -61.763  0.0000E+00  0.2000E+01
    -61.716  0.0000E+00  0.2000E+01
    -61.668  0.0000E+00  0.2000E+01
    -61.621  0.0000E+00  0.2000E+01
    -61.574  0.0000E+00  0.2000E+01
    -61.526  0.0000E+00  0.2000E+01
    -61.479  0.0000E+00  0.2000E+01
    -61.431  0.0000E+00  0.2000E+01
    -61.384  0.0000E+00  0.2000E+01
    -61.337  0.0000E+00  0.2000E+01
    -61.289  0.0000E+00  0.2000E+01
    -61.242  0.0000E+00  0.2000E+01
    -61.194  0.0000E+00  0.2000E+01
    -61.147  0.0000E+00  0.2000E+01
    -61.100  0.0000E+00  0.2000E+01
    -61.052  0.0000E+00  0.2000E+01
    -61.005  0.0000E+00  0.2000E+01
    -60.957  0.0000E+00  0.2000E+01
    -60.910  0.0000E+00  0.2000E+01
    -60.863  0.0000E+00  0.2000E+01
    -60.815  0.0000E+00  0.2000E+01
    -60.768  0.0000E+00  0.2000E+01
    -60.720  0.0000E+00  0.2000E+01
    -60.673  0.0000E+00  0.2000E+01
    -60.626  0.0000E+00  0.2000E+01
    -60.578  0.0000E+00  0.2000E+01
    -60.531  0.0000E+00  0.2000E+01
    -60.484  0.0000E+00  0.2000E+01
    -60.436  0.0000E+00  0.2000E+01
    -60.389  0.0000E+00  0.2000E+01
    -60.341  0.0000E+00  0.2000E+01
    -60.294  0.0000E+00  0.2000E+01
    -60.247  0.0000E+00  0.2000E+01
    -60.199  0.0000E+00  0.2000E+01
    -60.152  0.0000E+00  0.2000E+01
    -60.104  0.0000E+00  0.2000E+01
    -60.057  0.0000E+00  0.2000E+01
    -60.010  0.0000E+00  0.2000E+01
    -59.962  0.0000E+00  0.2000E+01
    -59.915  0.0000E+00  0.2000E+01
    -59.867  0.0000E+00  0.2000E+01
    -59.820  0.0000E+00  0.2000E+01
    -59.773  0.0000E+00  0.2000E+01
    -59.725  0.0000E+00  0.2000E+01
    -59.678  0.0000E+00  0.2000E+01
    -59.630  0.0000E+00  0.2000E+01
    -59.583  0.0000E+00  0.2000E+01
    -59.536  0.0000E+00  0.2000E+01
    -59.488  0.0000E+00  0.2000E+01
    -59.441  0.0000E+00  0.2000E+01
    -59.393  0.0000E+00  0.2000E+01
    -59.346  0.0000E+00  0.2000E+01
    -59.299  0.0000E+00  0.2000E+01
    -59.251  0.0000E+00  0.2000E+01
    -59.204  0.0000E+00  0.2000E+01
    -59.156  0.0000E+00  0.2000E+01
    -59.109  0.0000E+00  0.2000E+01
    -59.062  0.0000E+00  0.2000E+01
    -59.014  0.0000E+00  0.2000E+01
    -58.967  0.0000E+00  0.2000E+01
    -58.920  0.0000E+00  0.2000E+01
    -58.872  0.0000E+00  0.2000E+01
    -58.825  0.0000E+00  0.2000E+01
    -58.777  0.0000E+00  0.2000E+01
    -58.730  0.0000E+00  0.2000E+01
    -58.683  0.0000E+00  0.2000E+01
    -58.635  0.0000E+00  0.2000E+01
    -58.588  0.0000E+00  0.2000E+01
    -58.540  0.0000E+00  0.2000E+01
    -58.493  0.0000E+00  0.2000E+01
    -58.446  0.0000E+00  0.2000E+01
    -58.398  0.0000E+00  0.2000E+01
    -58.351  0.0000E+00  0.2000E+01
    -58.303  0.0000E+00  0.2000E+01
    -58.256  0.0000E+00  0.2000E+01
    -58.209  0.0000E+00  0.2000E+01
    -58.161  0.0000E+00  0.2000E+01
    -58.114  0.0000E+00  0.2000E+01
    -58.066  0.0000E+00  0.2000E+01
    -58.019  0.0000E+00  0.2000E+01
    -57.972  0.0000E+00  0.2000E+01
    -57.924  0.0000E+00  0.2000E+01
    -57.877  0.0000E+00  0.2000E+01
    -57.829  0.0000E+00  0.2000E+01
    -57.782  0.0000E+00  0.2000E+01
    -57.735  0.0000E+00  0.2000E+01
    -57.687  0.0000E+00  0.2000E+01
    -57.640  0.0000E+00  0.2000E+01
    -57.592  0.0000E+00  0.2000E+01
    -57.545  0.0000E+00  0.2000E+01
    -57.498  0.0000E+00  0.2000E+01
    -57.450  0.0000E+00  0.2000E+01
    -57.403  0.0000E+00  0.2000E+01
    -57.356  0.0000E+00  0.2000E+01
    -57.308  0.0000E+00  0.2000E+01
    -57.261  0.0000E+00  0.2000E+01
    -57.213  0.0000E+00  0.2000E+01
    -57.166  0.0000E+00  0.2000E+01
    -57.119  0.0000E+00  0.2000E+01
    -57.071  0.0000E+00  0.2000E+01
    -57.024  0.0000E+00  0.2000E+01
    -56.976  0.0000E+00  0.2000E+01
    -56.929  0.0000E+00  0.2000E+01
    -56.882  0.0000E+00  0.2000E+01
    -56.834  0.0000E+00  0.2000E+01
    -56.787  0.0000E+00  0.2000E+01
    -56.739  0.0000E+00  0.2000E+01
    -56.692  0.0000E+00  0.2000E+01
    -56.645  0.0000E+00  0.2000E+01
    -56.597  0.0000E+00  0.2000E+01
    -56.550  0.0000E+00  0.2000E+01
    -56.502  0.0000E+00  0.2000E+01
    -56.455  0.0000E+00  0.2000E+01
    -56.408  0.0000E+00  0.2000E+01
    -56.360  0.0000E+00  0.2000E+01
    -56.313  0.0000E+00  0.2000E+01
    -56.265  0.0000E+00  0.2000E+01
    -56.218  0.0000E+00  0.2000E+01
    -56.171  0.0000E+00  0.2000E+01
    -56.123  0.0000E+00  0.2000E+01
    -56.076  0.0000E+00  0.2000E+01
    -56.028  0.0000E+00  0.2000E+01
    -55.981  0.0000E+00  0.2000E+01
    -55.934  0.0000E+00  0.2000E+01
    -55.886  0.0000E+00  0.2000E+01
    -55.839  0.0000E+00  0.2000E+01
    -55.792  0.0000E+00  0.2000E+01
    -55.744  0.0000E+00  0.2000E+01
    -55.697  0.0000E+00  0.2000E+01
    -55.649  0.0000E+00  0.2000E+01
    -55.602  0.0000E+00  0.2000E+01
    -55.555  0.0000E+00  0.2000E+01
    -55.507  0.0000E+00  0.2000E+01
    -55.460  0.0000E+00  0.2000E+01
    -55.412  0.0000E+00  0.2000E+01
    -55.365  0.0000E+00  0.2000E+01
    -55.318  0.0000E+00  0.2000E+01
    -55.270  0.0000E+00  0.2000E+01
    -55.223  0.0000E+00  0.2000E+01
    -55.175  0.0000E+00  0.2000E+01
    -55.128  0.0000E+00  0.2000E+01
    -55.081  0.0000E+00  0.2000E+01
    -55.033  0.0000E+00  0.2000E+01
    -54.986  0.0000E+00  0.2000E+01
    -54.938  0.0000E+00  0.2000E+01
    -54.891  0.0000E+00  0.2000E+01
    -54.844  0.0000E+00  0.2000E+01
    -54.796  0.0000E+00  0.2000E+01
    -54.749  0.0000E+00  0.2000E+01
    -54.701  0.0000E+00  0.2000E+01
    -54.654  0.0000E+00  0.2000E+01
    -54.607  0.0000E+00  0.2000E+01
    -54.559  0.0000E+00  0.2000E+01
    -54.512  0.0000E+00  0.2000E+01
    -54.465  0.0000E+00  0.2000E+01
    -54.417  0.0000E+00  0.2000E+01
    -54.370  0.0000E+00  0.2000E+01
    -54.322  0.0000E+00  0.2000E+01
    -54.275  0.0000E+00  0.2000E+01
    -54.228  0.0000E+00  0.2000E+01
    -54.180  0.0000E+00  0.2000E+01
    -54.133  0.0000E+00  0.2000E+01
    -54.085  0.0000E+00  0.2000E+01
    -54.038  0.0000E+00  0.2000E+01
    -53.991  0.0000E+00  0.2000E+01
    -53.943  0.0000E+00  0.2000E+01
    -53.896  0.0000E+00  0.2000E+01
    -53.848  0.0000E+00  0.2000E+01
    -53.801  0.0000E+00  0.2000E+01
    -53.754  0.0000E+00  0.2000E+01
    -53.706  0.0000E+00  0.2000E+01
    -53.659  0.0000E+00  0.2000E+01
    -53.611  0.0000E+00  0.2000E+01
    -53.564  0.0000E+00  0.2000E+01
    -53.517  0.0000E+00  0.2000E+01
    -53.469  0.0000E+00  0.2000E+01
    -53.422  0.0000E+00  0.2000E+01
    -53.374  0.0000E+00  0.2000E+01
    -53.327  0.0000E+00  0.2000E+01
    -53.280  0.0000E+00  0.2000E+01
    -53.232  0.0000E+00  0.2000E+01
    -53.185  0.0000E+00  0.2000E+01
    -53.137  0.0000E+00  0.2000E+01
    -53.090  0.0000E+00  0.2000E+01
    -53.043  0.0000E+00  0.2000E+01
    -52.995  0.0000E+00  0.2000E+01
    -52.948  0.0000E+00  0.2000E+01
    -52.901  0.0000E+00  0.2000E+01
    -52.853  0.0000E+00  0.2000E+01
    -52.806  0.0000E+00  0.2000E+01
    -52.758  0.0000E+00  0.2000E+01
    -52.711  0.0000E+00  0.2000E+01
    -52.664  0.0000E+00  0.2000E+01
    -52.616  0.0000E+00  0.2000E+01
    -52.569  0.0000E+00  0.2000E+01
    -52.521  0.0000E+00  0.2000E+01
    -52.474  0.0000E+00  0.2000E+01
    -52.427  0.0000E+00  0.2000E+01
    -52.379  0.0000E+00  0.2000E+01
    -52.332  0.0000E+00  0.2000E+01
    -52.284  0.0000E+00  0.2000E+01
    -52.237  0.0000E+00  0.2000E+01
    -52.190  0.0000E+00  0.2000E+01
    -52.142  0.0000E+00  0.2000E+01
    -52.095  0.0000E+00  0.2000E+01
    -52.047  0.0000E+00  0.2000E+01
    -52.000  0.0000E+00  0.2000E+01
    -51.953  0.0000E+00  0.2000E+01
    -51.905  0.0000E+00  0.2000E+01
    -51.858  0.0000E+00  0.2000E+01
    -51.810  0.0000E+00  0.2000E+01
    -51.763  0.0000E+00  0.2000E+01
    -51.716  0.0000E+00  0.2000E+01
    -51.668  0.0000E+00  0.2000E+01
    -51.621  0.0000E+00  0.2000E+01
    -51.573  0.0000E+00  0.2000E+01
    -51.526  0.0000E+00  0.2000E+01
    -51.479  0.0000E+00  0.2000E+01
    -51.431  0.0000E+00  0.2000E+01
    -51.384  0.0000E+00  0.2000E+01
    -51.337  0.0000E+00  0.2000E+01
    -51.289  0.0000E+00  0.2000E+01
    -51.242  0.0000E+00  0.2000E+01
    -51.194  0.0000E+00  0.2000E+01
    -51.147  0.0000E+00  0.2000E+01
    -51.100  0.0000E+00  0.2000E+01
    -51.052  0.0000E+00  0.2000E+01
    -51.005  0.0000E+00  0.2000E+01
    -50.957  0.0000E+00  0.2000E+01
    -50.910  0.0000E+00  0.2000E+01
    -50.863  0.0000E+00  0.2000E+01
    -50.815  0.0000E+00  0.2000E+01
    -50.768  0.0000E+00  0.2000E+01
    -50.720  0.0000E+00  0.2000E+01
    -50.673  0.0000E+00  0.2000E+01
    -50.626  0.0000E+00  0.2000E+01
    -50.578  0.0000E+00  0.2000E+01
    -50.531  0.0000E+00  0.2000E+01
    -50.483  0.0000E+00  0.2000E+01
    -50.436  0.0000E+00  0.2000E+01
    -50.389  0.0000E+00  0.2000E+01
    -50.341  0.0000E+00  0.2000E+01
    -50.294  0.0000E+00  0.2000E+01
    -50.246  0.0000E+00  0.2000E+01
    -50.199  0.0000E+00  0.2000E+01
    -50.152  0.0000E+00  0.2000E+01
    -50.104  0.0000E+00  0.2000E+01
    -50.057  0.0000E+00  0.2000E+01
    -50.009  0.0000E+00  0.2000E+01
    -49.962  0.0000E+00  0.2000E+01
    -49.915  0.0000E+00  0.2000E+01
    -49.867  0.0000E+00  0.2000E+01
    -49.820  0.0000E+00  0.2000E+01
    -49.773  0.0000E+00  0.2000E+01
    -49.725  0.0000E+00  0.2000E+01
    -49.678  0.0000E+00  0.2000E+01
    -49.630  0.0000E+00  0.2000E+01
    -49.583  0.0000E+00  0.2000E+01
    -49.536  0.0000E+00  0.2000E+01
    -49.488  0.0000E+00  0.2000E+01
    -49.441  0.0000E+00  0.2000E+01
    -49.393  0.0000E+00  0.2000E+01
    -49.346  0.0000E+00  0.2000E+01
    -49.299  0.0000E+00  0.2000E+01
    -49.251  0.0000E+00  0.2000E+01
    -49.204  0.0000E+00  0.2000E+01
    -49.156  0.0000E+00  0.2000E+01
    -49.109  0.0000E+00  0.2000E+01
    -49.062  0.0000E+00  0.2000E+01
    -49.014  0.0000E+00  0.2000E+01
    -48.967  0.0000E+00  0.2000E+01
    -48.919  0.0000E+00  0.2000E+01
    -48.872  0.0000E+00  0.2000E+01
    -48.825  0.0000E+00  0.2000E+01
    -48.777  0.0000E+00  0.2000E+01
    -48.730  0.0000E+00  0.2000E+01
    -48.682  0.0000E+00  0.2000E+01
    -48.635  0.0000E+00  0.2000E+01
    -48.588  0.0000E+00  0.2000E+01
    -48.540  0.0000E+00  0.2000E+01
    -48.493  0.0000E+00  0.2000E+01
    -48.446  0.0000E+00  0.2000E+01
    -48.398  0.0000E+00  0.2000E+01
    -48.351  0.0000E+00  0.2000E+01
    -48.303  0.0000E+00  0.2000E+01
    -48.256  0.0000E+00  0.2000E+01
    -48.209  0.0000E+00  0.2000E+01
    -48.161  0.0000E+00  0.2000E+01
    -48.114  0.0000E+00  0.2000E+01
    -48.066  0.0000E+00  0.2000E+01
    -48.019  0.0000E+00  0.2000E+01
    -47.972  0.0000E+00  0.2000E+01
    -47.924  0.0000E+00  0.2000E+01
    -47.877  0.0000E+00  0.2000E+01
    -47.829  0.0000E+00  0.2000E+01
    -47.782  0.0000E+00  0.2000E+01
    -47.735  0.0000E+00  0.2000E+01
    -47.687  0.0000E+00  0.2000E+01
    -47.640  0.0000E+00  0.2000E+01
    -47.592  0.0000E+00  0.2000E+01
    -47.545  0.0000E+00  0.2000E+01
    -47.498  0.0000E+00  0.2000E+01
    -47.450  0.0000E+00  0.2000E+01
    -47.403  0.0000E+00  0.2000E+01
    -47.355  0.0000E+00  0.2000E+01
    -47.308  0.0000E+00  0.2000E+01
    -47.261  0.0000E+00  0.2000E+01
    -47.213  0.0000E+00  0.2000E+01
    -47.166  0.0000E+00  0.2000E+01
    -47.118  0.0000E+00  0.2000E+01
    -47.071  0.0000E+00  0.2000E+01
    -47.024  0.0000E+00  0.2000E+01
    -46.976  0.0000E+00  0.2000E+01
    -46.929  0.0000E+00  0.2000E+01
    -46.882  0.0000E+00  0.2000E+01
    -46.834  0.0000E+00  0.2000E+01
    -46.787  0.0000E+00  0.2000E+01
    -46.739  0.0000E+00  0.2000E+01
    -46.692  0.0000E+00  0.2000E+01
    -46.645  0.0000E+00  0.2000E+01
    -46.597  0.0000E+00  0.2000E+01
    -46.550  0.0000E+00  0.2000E+01
    -46.502  0.0000E+00  0.2000E+01
    -46.455  0.0000E+00  0.2000E+01
    -46.408  0.0000E+00  0.2000E+01
    -46.360  0.0000E+00  0.2000E+01
    -46.313  0.0000E+00  0.2000E+01
    -46.265  0.0000E+00  0.2000E+01
    -46.218  0.0000E+00  0.2000E+01
    -46.171  0.0000E+00  0.2000E+01
    -46.123  0.0000E+00  0.2000E+01
    -46.076  0.0000E+00  0.2000E+01
    -46.028  0.0000E+00  0.2000E+01
    -45.981  0.0000E+00  0.2000E+01
    -45.934  0.0000E+00  0.2000E+01
    -45.886  0.0000E+00  0.2000E+01
    -45.839  0.0000E+00  0.2000E+01
    -45.791  0.0000E+00  0.2000E+01
    -45.744  0.0000E+00  0.2000E+01
    -45.697  0.0000E+00  0.2000E+01
    -45.649  0.0000E+00  0.2000E+01
    -45.602  0.0000E+00  0.2000E+01
    -45.554  0.0000E+00  0.2000E+01
    -45.507  0.0000E+00  0.2000E+01
    -45.460  0.0000E+00  0.2000E+01
    -45.412  0.0000E+00  0.2000E+01
    -45.365  0.0000E+00  0.2000E+01
    -45.318  0.0000E+00  0.2000E+01
    -45.270  0.0000E+00  0.2000E+01
    -45.223  0.0000E+00  0.2000E+01
    -45.175  0.0000E+00  0.2000E+01
    -45.128  0.0000E+00  0.2000E+01
    -45.081  0.0000E+00  0.2000E+01
    -45.033  0.0000E+00  0.2000E+01
    -44.986  0.0000E+00  0.2000E+01
    -44.938  0.0000E+00  0.2000E+01
    -44.891  0.0000E+00  0.2000E+01
    -44.844  0.0000E+00  0.2000E+01
    -44.796  0.0000E+00  0.2000E+01
    -44.749  0.0000E+00  0.2000E+01
    -44.701  0.0000E+00  0.2000E+01
    -44.654  0.0000E+00  0.2000E+01
    -44.607  0.0000E+00  0.2000E+01
    -44.559  0.0000E+00  0.2000E+01
    -44.512  0.0000E+00  0.2000E+01
    -44.464  0.0000E+00  0.2000E+01
    -44.417  0.0000E+00  0.2000E+01
    -44.370  0.0000E+00  0.2000E+01
    -44.322  0.0000E+00  0.2000E+01
    -44.275  0.0000E+00  0.2000E+01
    -44.227  0.0000E+00  0.2000E+01
    -44.180  0.0000E+00  0.2000E+01
    -44.133  0.0000E+00  0.2000E+01
    -44.085  0.0000E+00  0.2000E+01
    -44.038  0.0000E+00  0.2000E+01
    -43.990  0.0000E+00  0.2000E+01
    -43.943  0.0000E+00  0.2000E+01
    -43.896  0.0000E+00  0.2000E+01
    -43.848  0.0000E+00  0.2000E+01
    -43.801  0.0000E+00  0.2000E+01
    -43.754  0.0000E+00  0.2000E+01
    -43.706  0.0000E+00  0.2000E+01
    -43.659  0.0000E+00  0.2000E+01
    -43.611  0.0000E+00  0.2000E+01
    -43.564  0.0000E+00  0.2000E+01
    -43.517  0.0000E+00  0.2000E+01
    -43.469  0.0000E+00  0.2000E+01
    -43.422  0.0000E+00  0.2000E+01
    -43.374  0.0000E+00  0.2000E+01
    -43.327  0.0000E+00  0.2000E+01
    -43.280  0.0000E+00  0.2000E+01
    -43.232  0.0000E+00  0.2000E+01
    -43.185  0.0000E+00  0.2000E+01
    -43.137  0.0000E+00  0.2000E+01
    -43.090  0.0000E+00  0.2000E+01
    -43.043  0.0000E+00  0.2000E+01
    -42.995  0.0000E+00  0.2000E+01
    -42.948  0.0000E+00  0.2000E+01
    -42.900  0.0000E+00  0.2000E+01
    -42.853  0.0000E+00  0.2000E+01
    -42.806  0.0000E+00  0.2000E+01
    -42.758  0.0000E+00  0.2000E+01
    -42.711  0.0000E+00  0.2000E+01
    -42.663  0.0000E+00  0.2000E+01
    -42.616  0.0000E+00  0.2000E+01
    -42.569  0.0000E+00  0.2000E+01
    -42.521  0.0000E+00  0.2000E+01
    -42.474  0.0000E+00  0.2000E+01
    -42.427  0.0000E+00  0.2000E+01
    -42.379  0.0000E+00  0.2000E+01
    -42.332  0.0000E+00  0.2000E+01
    -42.284  0.0000E+00  0.2000E+01
    -42.237  0.0000E+00  0.2000E+01
    -42.190  0.0000E+00  0.2000E+01
    -42.142  0.0000E+00  0.2000E+01
    -42.095  0.0000E+00  0.2000E+01
    -42.047  0.0000E+00  0.2000E+01
    -42.000  0.0000E+00  0.2000E+01
    -41.953  0.0000E+00  0.2000E+01
    -41.905  0.0000E+00  0.2000E+01
    -41.858  0.0000E+00  0.2000E+01
    -41.810  0.0000E+00  0.2000E+01
    -41.763  0.0000E+00  0.2000E+01
    -41.716  0.0000E+00  0.2000E+01
    -41.668  0.0000E+00  0.2000E+01
    -41.621  0.0000E+00  0.2000E+01
    -41.573  0.0000E+00  0.2000E+01
    -41.526  0.0000E+00  0.2000E+01
    -41.479  0.0000E+00  0.2000E+01
    -41.431  0.0000E+00  0.2000E+01
    -41.384  0.0000E+00  0.2000E+01
    -41.336  0.0000E+00  0.2000E+01
    -41.289  0.0000E+00  0.2000E+01
    -41.242  0.0000E+00  0.2000E+01
    -41.194  0.0000E+00  0.2000E+01
    -41.147  0.0000E+00  0.2000E+01
    -41.099  0.0000E+00  0.2000E+01
    -41.052  0.0000E+00  0.2000E+01