 vasp.6.4.0 14Feb23 (build Nov 26 2024 22:10:46) complex                        
  
 executed on             LinuxIFC date 2025.04.05  20:07:28
 running   32 mpi-ranks, on    1 nodes
 distrk:  each k-point on   32 cores,    1 groups
 distr:  one band on NCORE=   1 cores,   32 groups


--------------------------------------------------------------------------------------------------------


 INCAR:
   ISTART = 1            (Read existing wavefunction, if there)
   ISPIN = 1            (Non-Spin polarised DFT)
   LREAL = .FALSE.       (Projection operators: automatic)
   ENCUT = 500        (Cut-off energy for plane wave basis set, in eV)
   LWAVE = .TRUE.        (Write WAVECAR or not)
   LCHARG = .TRUE.        (Write CHGCAR or not)
   ADDGRID = .TRUE.        (Increase grid, helps GGA convergence)
   LASPH = .TRUE.        (Give more accurate total energies and band structure calculations)
   PREC = Accurate      (Accurate strictly avoids any aliasing or wrap around errors)
   LVTOT = .TRUE.      (Write total electrostatic potential into LOCPOT or not)
   LVHAR = .TRUE.      (Write ionic + Hartree electrostatic potential into LOCPOT or not)
   ISMEAR = 0            (gaussian smearing method)
   SIGMA = 0.05         (please check the width of the smearing)
   LORBIT = 11           (PAW radii for projected DOS)
   NEDOS = 2001         (DOSCAR points)
   NELM = 60           (Max electronic SCF steps)
   EDIFF = 1E-08        (SCF energy convergence, in eV)

 POTCAR:    PAW_PBE W_sv 04Sep2015                
 POTCAR:    PAW_PBE S 06Sep2000                   
 POTCAR:    PAW_PBE Te 08Apr2002                  
 -----------------------------------------------------------------------------
|                                                                             |
|           W    W    AA    RRRRR   N    N  II  N    N   GGGG   !!!           |
|           W    W   A  A   R    R  NN   N  II  NN   N  G    G  !!!           |
|           W    W  A    A  R    R  N N  N  II  N N  N  G       !!!           |
|           W WW W  AAAAAA  RRRRR   N  N N  II  N  N N  G  GGG   !            |
|           WW  WW  A    A  R   R   N   NN  II  N   NN  G    G                |
|           W    W  A    A  R    R  N    N  II  N    N   GGGG   !!!           |
|                                                                             |
|     For optimal performance we recommend to set                             |
|       NCORE = 2 up to number-of-cores-per-socket                            |
|     NCORE specifies how many cores store one orbital (NPAR=cpu/NCORE).      |
|     This setting can greatly improve the performance of VASP for DFT.       |
|     The default, NCORE=1 might be grossly inefficient on modern             |
|     multi-core architectures or massively parallel machines. Do your        |
|     own testing! More info at https://www.vasp.at/wiki/index.php/NCORE      |
|     Unfortunately you need to use the default for GW and RPA                |
|     calculations (for HF NCORE is supported but not extensively tested      |
|     yet).                                                                   |
|                                                                             |
 -----------------------------------------------------------------------------

 POTCAR:    PAW_PBE W_sv 04Sep2015                
   SHA256 =  931c2d770f65867ef30f3db3421922900fc0890ebac5c3e12f63b6a2064023d7 W_sv/POTCAR           
   COPYR  = (c) Copyright 04Sep2015 Georg Kresse                                                    
   COPYR  = This file is part of the software VASP. Any use, copying, and all other rights are regul
   COPYR  = If you do not have a valid VASP license, you may not use, copy or distribute this file. 
   VRHFIN =W : 5p6s5d                                                                               
   LEXCH  = PE                                                                                      
   EATOM  =  1865.5791 eV,  137.1162 Ry                                                             
                                                                                                    
   TITEL  = PAW_PBE W_sv 04Sep2015                                                                  
   LULTRA =        F    use ultrasoft PP ?                                                          
   IUNSCR =        1    unscreen: 0-lin 1-nonlin 2-no                                               
   RPACOR =    2.330    partial core radius                                                         
   POMASS =  183.850; ZVAL   =   14.000    mass and valenz                                          
   RCORE  =    2.500    outmost cutoff radius                                                       
   RWIGS  =    2.750; RWIGS  =    1.455    wigner-seitz radius (au A)                               
   ENMAX  =  223.057; ENMIN  =  167.293 eV                                                          
   ICORE  =        3    local potential                                                             
   LCOR   =        T    correct aug charges                                                         
   LPAW   =        T    paw PP                                                                      
   EAUG   =  373.438                                                                                
   DEXC   =    0.000                                                                                
   RMAX   =    2.565    core radius for proj-oper                                                   
   RAUG   =    1.300    factor for augmentation sphere                                              
   RDEP   =    2.539    radius for radial grids                                                     
   RDEPT  =    2.126    core radius for aug-charge                                                  
                                                                                                    
   Atomic configuration                                                                             
   15 entries                                                                                       
     n  l   j            E        occ.                                                              
     1  0  0.50    -69465.5834   2.0000                                                             
     2  0  0.50    -11986.2640   2.0000                                                             
     2  1  1.50    -10479.8613   6.0000                                                             
     3  0  0.50     -2759.0756   2.0000                                                             
     3  1  1.50     -2313.1855   6.0000                                                             
     3  2  2.50     -1801.1183  10.0000                                                             
     4  0  0.50      -567.6789   2.0000                                                             
     4  1  1.50      -421.4692   6.0000                                                             
     4  2  2.50      -236.3471  10.0000                                                             
     4  3  3.50       -31.2665  14.0000                                                             
     5  0  0.50       -77.1084   2.0000                                                             
     6  0  0.50        -5.1438   1.0000                                                             
     5  1  1.50       -41.3856   6.0000                                                             
     5  2  2.50        -3.3185   5.0000                                                             
     5  3  2.50        -1.3606   0.0000                                                             
   Description                                                                                      
     l       E           TYP  RCUT    TYP  RCUT                                                     
     0    -77.1084470     23  2.100                                                                 
     0     -5.1437956     23  2.300                                                                 
     1    -41.3855615     23  2.500                                                                 
     1     -2.7211652     23  2.500                                                                 
     2     -3.3185025     23  2.500                                                                 
     2     -1.5965151     23  2.500                                                                 
     3     -1.3605826     23  2.500                                                                 
  local pseudopotential read in
  partial core-charges read in
  partial kinetic energy density read in
  kinetic energy density of atom read in
  atomic valenz-charges read in
  non local Contribution for L=           0  read in
    real space projection operators read in
  non local Contribution for L=           0  read in
    real space projection operators read in
  non local Contribution for L=           1  read in
    real space projection operators read in
  non local Contribution for L=           1  read in
    real space projection operators read in
  non local Contribution for L=           2  read in
    real space projection operators read in
  non local Contribution for L=           2  read in
    real space projection operators read in
    PAW grid and wavefunctions read in
 
   number of l-projection  operators is LMAX  =           6
   number of lm-projection operators is LMMAX =          18
 
 POTCAR:    PAW_PBE S 06Sep2000                   
   SHA256 =  0fc7481fb0695f01bdc6462160264c5c84044ae9ec85a907d398b887a2bc3132 S/POTCAR              
   COPYR  = (c) Copyright 06Sep2000 Georg Kresse                                                    
   COPYR  = This file is part of the software VASP. Any use, copying, and all other rights are regul
   COPYR  = If you do not have a valid VASP license, you may not use, copy or distribute this file. 
   VRHFIN =S : s2p4                                                                                 
   LEXCH  = PE                                                                                      
   EATOM  =   276.8230 eV,   20.3459 Ry                                                             
                                                                                                    
   TITEL  = PAW_PBE S 06Sep2000                                                                     
   LULTRA =        F    use ultrasoft PP ?                                                          
   IUNSCR =        1    unscreen: 0-lin 1-nonlin 2-no                                               
   RPACOR =    1.500    partial core radius                                                         
   POMASS =   32.066; ZVAL   =    6.000    mass and valenz                                          
   RCORE  =    1.900    outmost cutoff radius                                                       
   RWIGS  =    2.200; RWIGS  =    1.164    wigner-seitz radius (au A)                               
   ENMAX  =  258.689; ENMIN  =  194.016 eV                                                          
   ICORE  =        2    local potential                                                             
   LCOR   =        T    correct aug charges                                                         
   LPAW   =        T    paw PP                                                                      
   EAUG   =  335.092                                                                                
   DEXC   =    0.000                                                                                
   RMAX   =    1.942    core radius for proj-oper                                                   
   RAUG   =    1.300    factor for augmentation sphere                                              
   RDEP   =    1.954    radius for radial grids                                                     
   RDEPT  =    1.744    core radius for aug-charge                                                  
                                                                                                    
   Atomic configuration                                                                             
    6 entries                                                                                       
     n  l   j            E        occ.                                                              
     1  0  0.50     -2405.8406   2.0000                                                             
     2  0  0.50      -211.7007   2.0000                                                             
     2  1  1.50      -156.4958   6.0000                                                             
     3  0  0.50       -17.2562   2.0000                                                             
     3  1  0.50        -7.0085   4.0000                                                             
     3  2  1.50        -6.8029   0.0000                                                             
   Description                                                                                      
     l       E           TYP  RCUT    TYP  RCUT                                                     
     0    -17.2561641     23  1.900                                                                 
     0    -15.8743224     23  1.900                                                                 
     1     -7.0085400     23  1.900                                                                 
     1     -2.7779785     23  1.900                                                                 
     2     -6.8029130     23  1.900                                                                 
  local pseudopotential read in
  partial core-charges read in
  partial kinetic energy density read in
  atomic valenz-charges read in
  non local Contribution for L=           0  read in
    real space projection operators read in
  non local Contribution for L=           0  read in
    real space projection operators read in
  non local Contribution for L=           1  read in
    real space projection operators read in
  non local Contribution for L=           1  read in
    real space projection operators read in
    PAW grid and wavefunctions read in
 
   number of l-projection  operators is LMAX  =           4
   number of lm-projection operators is LMMAX =           8
 
 POTCAR:    PAW_PBE Te 08Apr2002                  
   SHA256 =  e13b0861f25acb1fe6cdc17458a3647985498b67a429eb77ddc1eac05a1775b1 Te/POTCAR             
   COPYR  = (c) Copyright 08Apr2002 Georg Kresse                                                    
   COPYR  = This file is part of the software VASP. Any use, copying, and all other rights are regul
   COPYR  = If you do not have a valid VASP license, you may not use, copy or distribute this file. 
   VRHFIN =Te: s2p4                                                                                 
   LEXCH  = PE                                                                                      
   EATOM  =   223.2721 eV,   16.4100 Ry                                                             
                                                                                                    
   TITEL  = PAW_PBE Te 08Apr2002                                                                    
   LULTRA =        F    use ultrasoft PP ?                                                          
   IUNSCR =        1    unscreen: 0-lin 1-nonlin 2-no                                               
   RPACOR =    2.200    partial core radius                                                         
   POMASS =  127.600; ZVAL   =    6.000    mass and valenz                                          
   RCORE  =    2.300    outmost cutoff radius                                                       
   RWIGS  =    2.900; RWIGS  =    1.535    wigner-seitz radius (au A)                               
   ENMAX  =  174.982; ENMIN  =  131.236 eV                                                          
   ICORE  =        3    local potential                                                             
   LCOR   =        T    correct aug charges                                                         
   LPAW   =        T    paw PP                                                                      
   EAUG   =  368.792                                                                                
   DEXC   =    0.000                                                                                
   RMAX   =    2.345    core radius for proj-oper                                                   
   RAUG   =    1.300    factor for augmentation sphere                                              
   RDEP   =    2.397    radius for radial grids                                                     
   RDEPT  =    2.174    core radius for aug-charge                                                  
                                                                                                    
   Atomic configuration                                                                             
   13 entries                                                                                       
     n  l   j            E        occ.                                                              
     1  0  0.50    -31621.2075   2.0000                                                             
     2  0  0.50     -4848.7941   2.0000                                                             
     2  1  1.50     -4352.1960   6.0000                                                             
     3  0  0.50      -964.9612   2.0000                                                             
     3  1  1.50      -803.6179   6.0000                                                             
     3  2  2.50      -559.8710  10.0000                                                             
     4  0  0.50      -164.3522   2.0000                                                             
     4  1  1.50      -114.3756   6.0000                                                             
     4  2  2.50       -41.6483  10.0000                                                             
     5  0  0.50       -15.1072   2.0000                                                             
     5  1  0.50        -5.9526   4.0000                                                             
     5  2  1.50        -5.4423   0.0000                                                             
     4  3  2.50        -5.4423   0.0000                                                             
   Description                                                                                      
     l       E           TYP  RCUT    TYP  RCUT                                                     
     0    -15.1072389     23  2.300                                                                 
     0    -16.4678215     23  2.300                                                                 
     1     -5.9526306     23  2.300                                                                 
     1     -2.4873968     23  2.300                                                                 
     2     -5.4423304     23  2.300                                                                 
     3     -1.3605826     23  2.300                                                                 
  local pseudopotential read in
  partial core-charges read in
  partial kinetic energy density read in
  atomic valenz-charges read in
  non local Contribution for L=           0  read in
    real space projection operators read in
  non local Contribution for L=           0  read in
    real space projection operators read in
  non local Contribution for L=           1  read in
    real space projection operators read in
  non local Contribution for L=           1  read in
    real space projection operators read in
  non local Contribution for L=           2  read in
    real space projection operators read in
    PAW grid and wavefunctions read in
 
   number of l-projection  operators is LMAX  =           5
   number of lm-projection operators is LMMAX =          13
 
  PAW_PBE W_sv 04Sep2015                :
 energy of atom  1       EATOM=-1865.5791
 kinetic energy error for atom=    0.0031 (will be added to EATOM!!)
  PAW_PBE S 06Sep2000                   :
 energy of atom  2       EATOM= -276.8230
 kinetic energy error for atom=    0.0020 (will be added to EATOM!!)
  PAW_PBE Te 08Apr2002                  :
 energy of atom  3       EATOM= -223.2721
 kinetic energy error for atom=    0.0007 (will be added to EATOM!!)
 
 
 POSCAR: cif2pos.py
  positions in direct lattice
  velocities in cartesian coordinates
 exchange correlation table for  LEXCH =        8
   RHO(1)=    0.500       N(1)  =     2000
   RHO(2)=  100.500       N(2)  =     4000
 


--------------------------------------------------------------------------------------------------------


 ion  position               nearest neighbor table
   1  0.333  0.667  0.501-   2 2.44   2 2.44   2 2.44   3 2.73   3 2.73   3 2.73
   2  0.667  0.333  0.442-   1 2.44   1 2.44   1 2.44
   3  0.667  0.333  0.578-   1 2.73   1 2.73   1 2.73
 
  LATTYP: Found a hexagonal cell.
 ALAT       =     3.3661591155
 C/A-ratio  =     7.4268622314
  
  Lattice vectors:
  
 A1 = (   3.3661591155,   0.0000000000,   0.0000000000)
 A2 = (  -1.6830795578,   2.9151793027,   0.0000000000)
 A3 = (   0.0000000000,   0.0000000000,  25.0000000000)


Analysis of symmetry for initial positions (statically):
=====================================================================
 Subroutine PRICEL returns:
 Original cell was already a primitive cell.
 

 Routine SETGRP: Setting up the symmetry group for a 
 hexagonal supercell.


 Subroutine GETGRP returns: Found  2 space group operations
 (whereof  2 operations were pure point group operations)
 out of a pool of 24 trial point group operations.


The static configuration has the point symmetry C_1h.


Analysis of symmetry for dynamics (positions and initial velocities):
=====================================================================
 Subroutine PRICEL returns:
 Original cell was already a primitive cell.
 

 Routine SETGRP: Setting up the symmetry group for a 
 hexagonal supercell.


 Subroutine GETGRP returns: Found  2 space group operations
 (whereof  2 operations were pure point group operations)
 out of a pool of 24 trial point group operations.


The dynamic configuration has the point symmetry C_1h.


 Subroutine INISYM returns: Found  2 space group operations
 (whereof  2 operations are pure point group operations),
 and found     1 'primitive' translations


----------------------------------------------------------------------------------------

                                     Primitive cell                                     

  volume of cell :     245.3239

  direct lattice vectors                    reciprocal lattice vectors
     3.366159116  0.000000000  0.000000000     0.297074489  0.171516037  0.000000000
    -1.683079558  2.915179303  0.000000000     0.000000000  0.343032073  0.000000000
     0.000000000  0.000000000 25.000000000     0.000000000  0.000000000  0.040000000

  length of vectors
     3.366159116  3.366159112 25.000000000     0.343032073  0.343032073  0.040000000

  position of ions in fractional coordinates (direct lattice)
     0.333330000  0.666670000  0.501415630
     0.666670000  0.333330000  0.442189877
     0.666670000  0.333330000  0.577934493

  ion indices of the primitive-cell ions
   primitive index   ion index
                 1           1
                 2           2
                 3           3

----------------------------------------------------------------------------------------

 
 
 KPOINTS: K-Spacing Value to Generate K-Mesh: 0.02

Automatic generation of k-mesh.
 Grid dimensions read from file:
 generate k-points for:   21   21    1

 Generating k-lattice:

  Cartesian coordinates                     Fractional coordinates (reciprocal lattice)
     0.014146404  0.008167430  0.000000000     0.047619048 -0.000000000  0.000000000
     0.000000000  0.016334861  0.000000000     0.000000000  0.047619048  0.000000000
     0.000000000  0.000000000  0.040000000     0.000000000  0.000000000  1.000000000

  Length of vectors
     0.016334861  0.016334861  0.040000000

  Shift w.r.t. Gamma in fractional coordinates (k-lattice)
     0.000000000  0.000000000  0.000000000

 
 Subroutine IBZKPT returns following result:
 ===========================================
 
 Found    121 irreducible k-points:
 
 Following reciprocal coordinates:
            Coordinates               Weight
  0.000000  0.000000  0.000000      1.000000
  0.047619  0.000000  0.000000      4.000000
 -0.047619  0.047619  0.000000      2.000000
  0.095238  0.000000  0.000000      4.000000
 -0.095238  0.095238  0.000000      2.000000
  0.142857  0.000000  0.000000      4.000000
 -0.142857  0.142857  0.000000      2.000000
  0.190476  0.000000  0.000000      4.000000
 -0.190476  0.190476  0.000000      2.000000
  0.238095  0.000000  0.000000      4.000000
 -0.238095  0.238095  0.000000      2.000000
  0.285714  0.000000  0.000000      4.000000
 -0.285714  0.285714  0.000000      2.000000
  0.333333  0.000000  0.000000      4.000000
 -0.333333  0.333333  0.000000      2.000000
  0.380952  0.000000  0.000000      4.000000
 -0.380952  0.380952  0.000000      2.000000
  0.428571  0.000000  0.000000      4.000000
 -0.428571  0.428571  0.000000      2.000000
  0.476190  0.000000  0.000000      4.000000
 -0.476190  0.476190  0.000000      2.000000
  0.047619  0.047619  0.000000      2.000000
 -0.047619  0.095238  0.000000      4.000000
  0.095238  0.047619  0.000000      4.000000
 -0.047619  0.142857  0.000000      4.000000
 -0.142857  0.095238  0.000000      4.000000
  0.142857  0.047619  0.000000      4.000000
 -0.047619  0.190476  0.000000      4.000000
 -0.190476  0.142857  0.000000      4.000000
  0.190476  0.047619  0.000000      4.000000
 -0.047619  0.238095  0.000000      4.000000
 -0.238095  0.190476  0.000000      4.000000
  0.238095  0.047619  0.000000      4.000000
 -0.047619  0.285714  0.000000      4.000000
 -0.285714  0.238095  0.000000      4.000000
  0.285714  0.047619  0.000000      4.000000
 -0.047619  0.333333  0.000000      4.000000
 -0.333333  0.285714  0.000000      4.000000
  0.333333  0.047619  0.000000      4.000000
 -0.047619  0.380952  0.000000      4.000000
 -0.380952  0.333333  0.000000      4.000000
  0.380952  0.047619  0.000000      4.000000
 -0.047619  0.428571  0.000000      4.000000
 -0.428571  0.380952  0.000000      4.000000
  0.428571  0.047619  0.000000      4.000000
 -0.047619  0.476190  0.000000      4.000000
 -0.476190  0.428571  0.000000      4.000000
  0.476190  0.047619  0.000000      4.000000
  0.476190  0.476190  0.000000      2.000000
  0.095238  0.095238  0.000000      2.000000
 -0.095238  0.190476  0.000000      4.000000
  0.142857  0.095238  0.000000      4.000000
 -0.095238  0.238095  0.000000      4.000000
 -0.238095  0.142857  0.000000      4.000000
  0.190476  0.095238  0.000000      4.000000
 -0.095238  0.285714  0.000000      4.000000
 -0.285714  0.190476  0.000000      4.000000
  0.238095  0.095238  0.000000      4.000000
 -0.095238  0.333333  0.000000      4.000000
 -0.333333  0.238095  0.000000      4.000000
  0.285714  0.095238  0.000000      4.000000
 -0.095238  0.380952  0.000000      4.000000
 -0.380952  0.285714  0.000000      4.000000
  0.333333  0.095238  0.000000      4.000000
 -0.095238  0.428571  0.000000      4.000000
 -0.428571  0.333333  0.000000      4.000000
  0.380952  0.095238  0.000000      4.000000
 -0.095238  0.476190  0.000000      4.000000
 -0.476190  0.380952  0.000000      4.000000
  0.428571  0.095238  0.000000      4.000000
 -0.095238 -0.476190  0.000000      4.000000
  0.476190  0.428571  0.000000      4.000000
  0.142857  0.142857  0.000000      2.000000
 -0.142857  0.285714  0.000000      4.000000
  0.190476  0.142857  0.000000      4.000000
 -0.142857  0.333333  0.000000      4.000000
 -0.333333  0.190476  0.000000      4.000000
  0.238095  0.142857  0.000000      4.000000
 -0.142857  0.380952  0.000000      4.000000
 -0.380952  0.238095  0.000000      4.000000
  0.285714  0.142857  0.000000      4.000000
 -0.142857  0.428571  0.000000      4.000000
 -0.428571  0.285714  0.000000      4.000000
  0.333333  0.142857  0.000000      4.000000
 -0.142857  0.476190  0.000000      4.000000
 -0.476190  0.333333  0.000000      4.000000
  0.380952  0.142857  0.000000      4.000000
 -0.142857 -0.476190  0.000000      4.000000
  0.476190  0.380952  0.000000      4.000000
  0.428571  0.142857  0.000000      4.000000
  0.428571  0.428571  0.000000      2.000000
  0.190476  0.190476  0.000000      2.000000
 -0.190476  0.380952  0.000000      4.000000
  0.238095  0.190476  0.000000      4.000000
 -0.190476  0.428571  0.000000      4.000000
 -0.428571  0.238095  0.000000      4.000000
  0.285714  0.190476  0.000000      4.000000
 -0.190476  0.476190  0.000000      4.000000
 -0.476190  0.285714  0.000000      4.000000
  0.333333  0.190476  0.000000      4.000000
 -0.190476 -0.476190  0.000000      4.000000
  0.476190  0.333333  0.000000      4.000000
  0.380952  0.190476  0.000000      4.000000
 -0.190476 -0.428571  0.000000      4.000000
  0.428571  0.380952  0.000000      4.000000
  0.238095  0.238095  0.000000      2.000000
 -0.238095  0.476190  0.000000      4.000000
  0.285714  0.238095  0.000000      4.000000
 -0.238095 -0.476190  0.000000      4.000000
  0.476190  0.285714  0.000000      4.000000
  0.333333  0.238095  0.000000      4.000000
 -0.238095 -0.428571  0.000000      4.000000
  0.428571  0.333333  0.000000      4.000000
  0.380952  0.238095  0.000000      4.000000
  0.380952  0.380952  0.000000      2.000000
  0.285714  0.285714  0.000000      2.000000
 -0.285714 -0.428571  0.000000      4.000000
  0.333333  0.285714  0.000000      4.000000
 -0.285714 -0.380952  0.000000      4.000000
  0.380952  0.333333  0.000000      4.000000
  0.333333  0.333333  0.000000      2.000000
 
 Following cartesian coordinates:
            Coordinates               Weight
  0.000000  0.000000  0.000000      1.000000
  0.014146  0.008167  0.000000      4.000000
 -0.014146  0.008167  0.000000      2.000000
  0.028293  0.016335  0.000000      4.000000
 -0.028293  0.016335  0.000000      2.000000
  0.042439  0.024502  0.000000      4.000000
 -0.042439  0.024502  0.000000      2.000000
  0.056586  0.032670  0.000000      4.000000
 -0.056586  0.032670  0.000000      2.000000
  0.070732  0.040837  0.000000      4.000000
 -0.070732  0.040837  0.000000      2.000000
  0.084878  0.049005  0.000000      4.000000
 -0.084878  0.049005  0.000000      2.000000
  0.099025  0.057172  0.000000      4.000000
 -0.099025  0.057172  0.000000      2.000000
  0.113171  0.065339  0.000000      4.000000
 -0.113171  0.065339  0.000000      2.000000
  0.127318  0.073507  0.000000      4.000000
 -0.127318  0.073507  0.000000      2.000000
  0.141464  0.081674  0.000000      4.000000
 -0.141464  0.081674  0.000000      2.000000
  0.014146  0.024502  0.000000      2.000000
 -0.014146  0.024502  0.000000      4.000000
  0.028293  0.032670  0.000000      4.000000
 -0.014146  0.040837  0.000000      4.000000
 -0.042439  0.008167  0.000000      4.000000
  0.042439  0.040837  0.000000      4.000000
 -0.014146  0.057172  0.000000      4.000000
 -0.056586  0.016335  0.000000      4.000000
  0.056586  0.049005  0.000000      4.000000
 -0.014146  0.073507  0.000000      4.000000
 -0.070732  0.024502  0.000000      4.000000
  0.070732  0.057172  0.000000      4.000000
 -0.014146  0.089842  0.000000      4.000000
 -0.084878  0.032670  0.000000      4.000000
  0.084878  0.065339  0.000000      4.000000
 -0.014146  0.106177  0.000000      4.000000
 -0.099025  0.040837  0.000000      4.000000
  0.099025  0.073507  0.000000      4.000000
 -0.014146  0.122511  0.000000      4.000000
 -0.113171  0.049005  0.000000      4.000000
  0.113171  0.081674  0.000000      4.000000
 -0.014146  0.138846  0.000000      4.000000
 -0.127318  0.057172  0.000000      4.000000
  0.127318  0.089842  0.000000      4.000000
 -0.014146  0.155181  0.000000      4.000000
 -0.141464  0.065339  0.000000      4.000000
  0.141464  0.098009  0.000000      4.000000
  0.141464  0.245023  0.000000      2.000000
  0.028293  0.049005  0.000000      2.000000
 -0.028293  0.049005  0.000000      4.000000
  0.042439  0.057172  0.000000      4.000000
 -0.028293  0.065339  0.000000      4.000000
 -0.070732  0.008167  0.000000      4.000000
  0.056586  0.065339  0.000000      4.000000
 -0.028293  0.081674  0.000000      4.000000
 -0.084878  0.016335  0.000000      4.000000
  0.070732  0.073507  0.000000      4.000000
 -0.028293  0.098009  0.000000      4.000000
 -0.099025  0.024502  0.000000      4.000000
  0.084878  0.081674  0.000000      4.000000
 -0.028293  0.114344  0.000000      4.000000
 -0.113171  0.032670  0.000000      4.000000
  0.099025  0.089842  0.000000      4.000000
 -0.028293  0.130679  0.000000      4.000000
 -0.127318  0.040837  0.000000      4.000000
  0.113171  0.098009  0.000000      4.000000
 -0.028293  0.147014  0.000000      4.000000
 -0.141464  0.049005  0.000000      4.000000
  0.127318  0.106177  0.000000      4.000000
 -0.028293 -0.179683  0.000000      4.000000
  0.141464  0.228688  0.000000      4.000000
  0.042439  0.073507  0.000000      2.000000
 -0.042439  0.073507  0.000000      4.000000
  0.056586  0.081674  0.000000      4.000000
 -0.042439  0.089842  0.000000      4.000000
 -0.099025  0.008167  0.000000      4.000000
  0.070732  0.089842  0.000000      4.000000
 -0.042439  0.106177  0.000000      4.000000
 -0.113171  0.016335  0.000000      4.000000
  0.084878  0.098009  0.000000      4.000000
 -0.042439  0.122511  0.000000      4.000000
 -0.127318  0.024502  0.000000      4.000000
  0.099025  0.106177  0.000000      4.000000
 -0.042439  0.138846  0.000000      4.000000
 -0.141464  0.032670  0.000000      4.000000
  0.113171  0.114344  0.000000      4.000000
 -0.042439 -0.187851  0.000000      4.000000
  0.141464  0.212353  0.000000      4.000000
  0.127318  0.122511  0.000000      4.000000
  0.127318  0.220521  0.000000      2.000000
  0.056586  0.098009  0.000000      2.000000
 -0.056586  0.098009  0.000000      4.000000
  0.070732  0.106177  0.000000      4.000000
 -0.056586  0.114344  0.000000      4.000000
 -0.127318  0.008167  0.000000      4.000000
  0.084878  0.114344  0.000000      4.000000
 -0.056586  0.130679  0.000000      4.000000
 -0.141464  0.016335  0.000000      4.000000
  0.099025  0.122511  0.000000      4.000000
 -0.056586 -0.196018  0.000000      4.000000
  0.141464  0.196018  0.000000      4.000000
  0.113171  0.130679  0.000000      4.000000
 -0.056586 -0.179683  0.000000      4.000000
  0.127318  0.204186  0.000000      4.000000
  0.070732  0.122511  0.000000      2.000000
 -0.070732  0.122511  0.000000      4.000000
  0.084878  0.130679  0.000000      4.000000
 -0.070732 -0.204186  0.000000      4.000000
  0.141464  0.179683  0.000000      4.000000
  0.099025  0.138846  0.000000      4.000000
 -0.070732 -0.187851  0.000000      4.000000
  0.127318  0.187851  0.000000      4.000000
  0.113171  0.147014  0.000000      4.000000
  0.113171  0.196018  0.000000      2.000000
  0.084878  0.147014  0.000000      2.000000
 -0.084878 -0.196018  0.000000      4.000000
  0.099025  0.155181  0.000000      4.000000
 -0.084878 -0.179683  0.000000      4.000000
  0.113171  0.179683  0.000000      4.000000
  0.099025  0.171516  0.000000      2.000000
 


--------------------------------------------------------------------------------------------------------




 Dimension of arrays:
   k-points           NKPTS =    121   k-points in BZ     NKDIM =    121   number of bands    NBANDS=     32
   number of dos      NEDOS =   2001   number of ions     NIONS =      3
   non local maximal  LDIM  =      6   non local SUM 2l+1 LMDIM =     18
   total plane-waves  NPLWV = 150528
   max r-space proj   IRMAX =      1   max aug-charges    IRDMAX= 285671
   dimension x,y,z NGX =    28 NGY =   28 NGZ =  192
   dimension x,y,z NGXF=    56 NGYF=   56 NGZF=  384
   support grid    NGXF=   112 NGYF=  112 NGZF=  768
   ions per type =               1   1   1
   NGX,Y,Z   is equivalent  to a cutoff of  13.83, 13.83, 12.77 a.u.
   NGXF,Y,Z  is equivalent  to a cutoff of  27.66, 27.66, 25.54 a.u.

 SYSTEM =  unknown system                          
 POSCAR =  cif2pos.py                              

 Startparameter for this run:
   NWRITE =      2    write-flag & timer
   PREC   = accura    normal or accurate (medium, high low for compatibility)
   ISTART =      0    job   : 0-new  1-cont  2-samecut
   ICHARG =      2    charge: 1-file 2-atom 10-const
   ISPIN  =      1    spin polarized calculation?
   LNONCOLLINEAR =      F non collinear calculations
   LSORBIT =      F    spin-orbit coupling
   INIWAV =      1    electr: 0-lowe 1-rand  2-diag
   LASPH  =      T    aspherical Exc in radial PAW
 Electronic Relaxation 1
   ENCUT  =  500.0 eV  36.75 Ry    6.06 a.u.   6.14  6.14 45.58*2*pi/ulx,y,z
   ENINI  =  500.0     initial cutoff
   ENAUG  =  373.4 eV  augmentation charge cutoff
   NELM   =     60;   NELMIN=  2; NELMDL=  0     # of ELM steps 
   EDIFF  = 0.1E-07   stopping-criterion for ELM
   LREAL  =      F    real-space projection
   NLSPLINE    = F    spline interpolate recip. space projectors
   LCOMPAT=      F    compatible to vasp.4.4
   GGA_COMPAT  = T    GGA compatible to vasp.4.4-vasp.4.6
   LMAXPAW     = -100 max onsite density
   LMAXMIX     =    2 max onsite mixed and CHGCAR
   VOSKOWN=      0    Vosko Wilk Nusair interpolation
   ROPT   =    0.00000   0.00000   0.00000
 Ionic relaxation
   EDIFFG = 0.1E-06   stopping-criterion for IOM
   NSW    =      0    number of steps for IOM
   NBLOCK =      1;   KBLOCK =      1    inner block; outer block 
   IBRION =     -1    ionic relax: 0-MD 1-quasi-New 2-CG
   NFREE  =      0    steps in history (QN), initial steepest desc. (CG)
   ISIF   =      2    stress and relaxation
   IWAVPR =     10    prediction:  0-non 1-charg 2-wave 3-comb
   ISYM   =      2    0-nonsym 1-usesym 2-fastsym
   LCORR  =      T    Harris-Foulkes like correction to forces

   POTIM  = 0.5000    time-step for ionic-motion
   TEIN   =    0.0    initial temperature
   TEBEG  =    0.0;   TEEND  =   0.0 temperature during run
   SMASS  =  -3.00    Nose mass-parameter (am)
   estimated Nose-frequenzy (Omega)   =  0.10E-29 period in steps = 0.13E+47 mass=  -0.259E-27a.u.
   SCALEE = 1.0000    scale energy and forces
   NPACO  =    256;   APACO  = 10.0  distance and # of slots for P.C.
   PSTRESS=    0.0 pullay stress

  Mass of Ions in am
   POMASS = 183.85 32.07127.60
  Ionic Valenz
   ZVAL   =  14.00  6.00  6.00
  Atomic Wigner-Seitz radii
   RWIGS  =  -1.00 -1.00 -1.00
  virtual crystal weights 
   VCA    =   1.00  1.00  1.00
   NELECT =      26.0000    total number of electrons
   NUPDOWN=      -1.0000    fix difference up-down

 DOS related values:
   EMIN   =  10.00;   EMAX   =-10.00  energy-range for DOS
   EFERMI =   0.00;   METHOD = LEGACY      
   ISMEAR =     0;   SIGMA  =   0.05  broadening in eV -4-tet -1-fermi 0-gaus

 Electronic relaxation 2 (details)
   IALGO  =     38    algorithm
   LDIAG  =      T    sub-space diagonalisation (order eigenvalues)
   LSUBROT=      F    optimize rotation matrix (better conditioning)
   TURBO    =      0    0=normal 1=particle mesh
   IRESTART =      0    0=no restart 2=restart with 2 vectors
   NREBOOT  =      0    no. of reboots
   NMIN     =      0    reboot dimension
   EREF     =   0.00    reference energy to select bands
   IMIX   =      4    mixing-type and parameters
     AMIX     =   0.40;   BMIX     =  1.00
     AMIX_MAG =   1.60;   BMIX_MAG =  1.00
     AMIN     =   0.10
     WC   =   100.;   INIMIX=   1;  MIXPRE=   1;  MAXMIX= -45

 Intra band minimization:
   WEIMIN = 0.0000     energy-eigenvalue tresh-hold
   EBREAK =  0.78E-10  absolut break condition
   DEPER  =   0.30     relativ break condition  

   TIME   =   0.40     timestep for ELM

  volume/ion in A,a.u.               =      81.77       551.84
  Fermi-wavevector in a.u.,A,eV,Ry     =   0.774734  1.464035  8.166391  0.600213
  Thomas-Fermi vector in A             =   1.876853
 
 Write flags
   LWAVE        =      T    write WAVECAR
   LDOWNSAMPLE  =      F    k-point downsampling of WAVECAR
   LCHARG       =      T    write CHGCAR
   LVTOT        =      F    write LOCPOT, total local potential
   LVHAR        =      T    write LOCPOT, Hartree potential only
   LELF         =      F    write electronic localiz. function (ELF)
   LORBIT       =     11    0 simple, 1 ext, 2 COOP (PROOUT), +10 PAW based schemes


 Dipole corrections
   LMONO  =      F    monopole corrections only (constant potential shift)
   LDIPOL =      F    correct potential (dipole corrections)
   IDIPOL =      0    1-x, 2-y, 3-z, 4-all directions 
   EPSILON=  1.0000000 bulk dielectric constant

 Exchange correlation treatment:
   GGA     =    --    GGA type
   LEXCH   =     8    internal setting for exchange type
   LIBXC   =     F    Libxc                    
   VOSKOWN =     0    Vosko Wilk Nusair interpolation
   LHFCALC =     F    Hartree Fock is set to
   LHFONE  =     F    Hartree Fock one center treatment
   AEXX    =    0.0000 exact exchange contribution

 Linear response parameters
   LEPSILON=     F    determine dielectric tensor
   LRPA    =     F    only Hartree local field effects (RPA)
   LNABLA  =     F    use nabla operator in PAW spheres
   LVEL    =     F    velocity operator in full k-point grid
   CSHIFT  =0.1000    complex shift for real part using Kramers Kronig
   OMEGAMAX=  -1.0    maximum frequency
   DEG_THRESHOLD= 0.2000000E-02 threshold for treating states as degnerate
   RTIME   =   -0.100 relaxation time in fs
  (WPLASMAI=    0.000 imaginary part of plasma frequency in eV, 0.658/RTIME)
   DFIELD  = 0.0000000 0.0000000 0.0000000 field for delta impulse in time
 
  Optional k-point grid parameters
   LKPOINTS_OPT  =     F    use optional k-point grid
   KPOINTS_OPT_MODE=     1    mode for optional k-point grid
 
 Orbital magnetization related:
   ORBITALMAG=     F  switch on orbital magnetization
   LCHIMAG   =     F  perturbation theory with respect to B field
   DQ        =  0.001000  dq finite difference perturbation B field
   LLRAUG    =     F  two centre corrections for induced B field
   LBONE     =     F  B-component reconstruction in AE one-centre
   LVGVCALC  =     T  calculate vGv susceptibility
   LVGVAPPL  =     F  apply vGv susceptibility instead of pGv for G=0

 Random number generation:
   RANDOM_GENERATOR = DEFAULT
   PCG_SEED         = not used


--------------------------------------------------------------------------------------------------------


 Static calculation
 charge density and potential will be updated during run
 non-spin polarized calculation
 Variant of blocked Davidson
 Davidson routine will perform the subspace rotation
 perform sub-space diagonalisation
    after iterative eigenvector-optimisation
 modified Broyden-mixing scheme, WC =      100.0
 initial mixing is a Kerker type mixing with AMIX =  0.4000 and BMIX =      1.0000
 Hartree-type preconditioning will be used
 using additional bands           19
 reciprocal scheme for non local part
 use partial core corrections
 calculate Harris-corrections to forces 
   (improved forces if not selfconsistent)
 use gradient corrections 
 use of overlap-Matrix (Vanderbilt PP)
 Gauss-broadening in eV      SIGMA  =   0.05


--------------------------------------------------------------------------------------------------------


  energy-cutoff  :      500.00
  volume of cell :      245.32
      direct lattice vectors                 reciprocal lattice vectors
     3.366159116  0.000000000  0.000000000     0.297074489  0.171516037  0.000000000
    -1.683079558  2.915179303  0.000000000     0.000000000  0.343032073  0.000000000
     0.000000000  0.000000000 25.000000000     0.000000000  0.000000000  0.040000000

  length of vectors
     3.366159116  3.366159112 25.000000000     0.343032073  0.343032073  0.040000000


 
 k-points in units of 2pi/SCALE and weight: K-Spacing Value to Generate K-Mesh: 0.02
   0.00000000  0.00000000  0.00000000       0.002
   0.01414640  0.00816743  0.00000000       0.009
  -0.01414640  0.00816743  0.00000000       0.005
   0.02829281  0.01633486  0.00000000       0.009
  -0.02829281  0.01633486  0.00000000       0.005
   0.04243921  0.02450229  0.00000000       0.009
  -0.04243921  0.02450229  0.00000000       0.005
   0.05658562  0.03266972  0.00000000       0.009
  -0.05658562  0.03266972  0.00000000       0.005
   0.07073202  0.04083715  0.00000000       0.009
  -0.07073202  0.04083715  0.00000000       0.005
   0.08487843  0.04900458  0.00000000       0.009
  -0.08487843  0.04900458  0.00000000       0.005
   0.09902483  0.05717201  0.00000000       0.009
  -0.09902483  0.05717201  0.00000000       0.005
   0.11317123  0.06533944  0.00000000       0.009
  -0.11317123  0.06533944  0.00000000       0.005
   0.12731764  0.07350687  0.00000000       0.009
  -0.12731764  0.07350687  0.00000000       0.005
   0.14146404  0.08167430  0.00000000       0.009
  -0.14146404  0.08167430  0.00000000       0.005
   0.01414640  0.02450229  0.00000000       0.005
  -0.01414640  0.02450229  0.00000000       0.009
   0.02829281  0.03266972  0.00000000       0.009
  -0.01414640  0.04083715  0.00000000       0.009
  -0.04243921  0.00816743  0.00000000       0.009
   0.04243921  0.04083715  0.00000000       0.009
  -0.01414640  0.05717201  0.00000000       0.009
  -0.05658562  0.01633486  0.00000000       0.009
   0.05658562  0.04900458  0.00000000       0.009
  -0.01414640  0.07350687  0.00000000       0.009
  -0.07073202  0.02450229  0.00000000       0.009
   0.07073202  0.05717201  0.00000000       0.009
  -0.01414640  0.08984173  0.00000000       0.009
  -0.08487843  0.03266972  0.00000000       0.009
   0.08487843  0.06533944  0.00000000       0.009
  -0.01414640  0.10617659  0.00000000       0.009
  -0.09902483  0.04083715  0.00000000       0.009
   0.09902483  0.07350687  0.00000000       0.009
  -0.01414640  0.12251145  0.00000000       0.009
  -0.11317123  0.04900458  0.00000000       0.009
   0.11317123  0.08167430  0.00000000       0.009
  -0.01414640  0.13884632  0.00000000       0.009
  -0.12731764  0.05717201  0.00000000       0.009
   0.12731764  0.08984173  0.00000000       0.009
  -0.01414640  0.15518118  0.00000000       0.009
  -0.14146404  0.06533944  0.00000000       0.009
   0.14146404  0.09800916  0.00000000       0.009
   0.14146404  0.24502291  0.00000000       0.005
   0.02829281  0.04900458  0.00000000       0.005
  -0.02829281  0.04900458  0.00000000       0.009
   0.04243921  0.05717201  0.00000000       0.009
  -0.02829281  0.06533944  0.00000000       0.009
  -0.07073202  0.00816743  0.00000000       0.009
   0.05658562  0.06533944  0.00000000       0.009
  -0.02829281  0.08167430  0.00000000       0.009
  -0.08487843  0.01633486  0.00000000       0.009
   0.07073202  0.07350687  0.00000000       0.009
  -0.02829281  0.09800916  0.00000000       0.009
  -0.09902483  0.02450229  0.00000000       0.009
   0.08487843  0.08167430  0.00000000       0.009
  -0.02829281  0.11434402  0.00000000       0.009
  -0.11317123  0.03266972  0.00000000       0.009
   0.09902483  0.08984173  0.00000000       0.009
  -0.02829281  0.13067889  0.00000000       0.009
  -0.12731764  0.04083715  0.00000000       0.009
   0.11317123  0.09800916  0.00000000       0.009
  -0.02829281  0.14701375  0.00000000       0.009
  -0.14146404  0.04900458  0.00000000       0.009
   0.12731764  0.10617659  0.00000000       0.009
  -0.02829281 -0.17968347  0.00000000       0.009
   0.14146404  0.22868805  0.00000000       0.009
   0.04243921  0.07350687  0.00000000       0.005
  -0.04243921  0.07350687  0.00000000       0.009
   0.05658562  0.08167430  0.00000000       0.009
  -0.04243921  0.08984173  0.00000000       0.009
  -0.09902483  0.00816743  0.00000000       0.009
   0.07073202  0.08984173  0.00000000       0.009
  -0.04243921  0.10617659  0.00000000       0.009
  -0.11317123  0.01633486  0.00000000       0.009
   0.08487843  0.09800916  0.00000000       0.009
  -0.04243921  0.12251145  0.00000000       0.009
  -0.12731764  0.02450229  0.00000000       0.009
   0.09902483  0.10617659  0.00000000       0.009
  -0.04243921  0.13884632  0.00000000       0.009
  -0.14146404  0.03266972  0.00000000       0.009
   0.11317123  0.11434402  0.00000000       0.009
  -0.04243921 -0.18785090  0.00000000       0.009
   0.14146404  0.21235319  0.00000000       0.009
   0.12731764  0.12251145  0.00000000       0.009
   0.12731764  0.22052062  0.00000000       0.005
   0.05658562  0.09800916  0.00000000       0.005
  -0.05658562  0.09800916  0.00000000       0.009
   0.07073202  0.10617659  0.00000000       0.009
  -0.05658562  0.11434402  0.00000000       0.009
  -0.12731764  0.00816743  0.00000000       0.009
   0.08487843  0.11434402  0.00000000       0.009
  -0.05658562  0.13067889  0.00000000       0.009
  -0.14146404  0.01633486  0.00000000       0.009
   0.09902483  0.12251145  0.00000000       0.009
  -0.05658562 -0.19601833  0.00000000       0.009
   0.14146404  0.19601833  0.00000000       0.009
   0.11317123  0.13067889  0.00000000       0.009
  -0.05658562 -0.17968347  0.00000000       0.009
   0.12731764  0.20418576  0.00000000       0.009
   0.07073202  0.12251145  0.00000000       0.005
  -0.07073202  0.12251145  0.00000000       0.009
   0.08487843  0.13067889  0.00000000       0.009
  -0.07073202 -0.20418576  0.00000000       0.009
   0.14146404  0.17968347  0.00000000       0.009
   0.09902483  0.13884632  0.00000000       0.009
  -0.07073202 -0.18785090  0.00000000       0.009
   0.12731764  0.18785090  0.00000000       0.009
   0.11317123  0.14701375  0.00000000       0.009
   0.11317123  0.19601833  0.00000000       0.005
   0.08487843  0.14701375  0.00000000       0.005
  -0.08487843 -0.19601833  0.00000000       0.009
   0.09902483  0.15518118  0.00000000       0.009
  -0.08487843 -0.17968347  0.00000000       0.009
   0.11317123  0.17968347  0.00000000       0.009
   0.09902483  0.17151604  0.00000000       0.005
 
 k-points in reciprocal lattice and weights: K-Spacing Value to Generate K-Mesh: 0.02
   0.00000000  0.00000000  0.00000000       0.002
   0.04761905  0.00000000  0.00000000       0.009
  -0.04761905  0.04761905  0.00000000       0.005
   0.09523810  0.00000000  0.00000000       0.009
  -0.09523810  0.09523810  0.00000000       0.005
   0.14285714  0.00000000  0.00000000       0.009
  -0.14285714  0.14285714  0.00000000       0.005
   0.19047619  0.00000000  0.00000000       0.009
  -0.19047619  0.19047619  0.00000000       0.005
   0.23809524  0.00000000  0.00000000       0.009
  -0.23809524  0.23809524  0.00000000       0.005
   0.28571429  0.00000000  0.00000000       0.009
  -0.28571429  0.28571429  0.00000000       0.005
   0.33333333  0.00000000  0.00000000       0.009
  -0.33333333  0.33333333  0.00000000       0.005
   0.38095238  0.00000000  0.00000000       0.009
  -0.38095238  0.38095238  0.00000000       0.005
   0.42857143  0.00000000  0.00000000       0.009
  -0.42857143  0.42857143  0.00000000       0.005
   0.47619048  0.00000000  0.00000000       0.009
  -0.47619048  0.47619048  0.00000000       0.005
   0.04761905  0.04761905  0.00000000       0.005
  -0.04761905  0.09523810  0.00000000       0.009
   0.09523810  0.04761905  0.00000000       0.009
  -0.04761905  0.14285714  0.00000000       0.009
  -0.14285714  0.09523810  0.00000000       0.009
   0.14285714  0.04761905  0.00000000       0.009
  -0.04761905  0.19047619  0.00000000       0.009
  -0.19047619  0.14285714  0.00000000       0.009
   0.19047619  0.04761905  0.00000000       0.009
  -0.04761905  0.23809524  0.00000000       0.009
  -0.23809524  0.19047619  0.00000000       0.009
   0.23809524  0.04761905  0.00000000       0.009
  -0.04761905  0.28571429  0.00000000       0.009
  -0.28571429  0.23809524  0.00000000       0.009
   0.28571429  0.04761905  0.00000000       0.009
  -0.04761905  0.33333333  0.00000000       0.009
  -0.33333333  0.28571429  0.00000000       0.009
   0.33333333  0.04761905  0.00000000       0.009
  -0.04761905  0.38095238  0.00000000       0.009
  -0.38095238  0.33333333  0.00000000       0.009
   0.38095238  0.04761905  0.00000000       0.009
  -0.04761905  0.42857143  0.00000000       0.009
  -0.42857143  0.38095238  0.00000000       0.009
   0.42857143  0.04761905  0.00000000       0.009
  -0.04761905  0.47619048  0.00000000       0.009
  -0.47619048  0.42857143  0.00000000       0.009
   0.47619048  0.04761905  0.00000000       0.009
   0.47619048  0.47619048  0.00000000       0.005
   0.09523810  0.09523810  0.00000000       0.005
  -0.09523810  0.19047619  0.00000000       0.009
   0.14285714  0.09523810  0.00000000       0.009
  -0.09523810  0.23809524  0.00000000       0.009
  -0.23809524  0.14285714  0.00000000       0.009
   0.19047619  0.09523810  0.00000000       0.009
  -0.09523810  0.28571429  0.00000000       0.009
  -0.28571429  0.19047619  0.00000000       0.009
   0.23809524  0.09523810  0.00000000       0.009
  -0.09523810  0.33333333  0.00000000       0.009
  -0.33333333  0.23809524  0.00000000       0.009
   0.28571429  0.09523810  0.00000000       0.009
  -0.09523810  0.38095238  0.00000000       0.009
  -0.38095238  0.28571429  0.00000000       0.009
   0.33333333  0.09523810  0.00000000       0.009
  -0.09523810  0.42857143  0.00000000       0.009
  -0.42857143  0.33333333  0.00000000       0.009
   0.38095238  0.09523810  0.00000000       0.009
  -0.09523810  0.47619048  0.00000000       0.009
  -0.47619048  0.38095238  0.00000000       0.009
   0.42857143  0.09523810  0.00000000       0.009
  -0.09523810 -0.47619048  0.00000000       0.009
   0.47619048  0.42857143  0.00000000       0.009
   0.14285714  0.14285714  0.00000000       0.005
  -0.14285714  0.28571429  0.00000000       0.009
   0.19047619  0.14285714  0.00000000       0.009
  -0.14285714  0.33333333  0.00000000       0.009
  -0.33333333  0.19047619  0.00000000       0.009
   0.23809524  0.14285714  0.00000000       0.009
  -0.14285714  0.38095238  0.00000000       0.009
  -0.38095238  0.23809524  0.00000000       0.009
   0.28571429  0.14285714  0.00000000       0.009
  -0.14285714  0.42857143  0.00000000       0.009
  -0.42857143  0.28571429  0.00000000       0.009
   0.33333333  0.14285714  0.00000000       0.009
  -0.14285714  0.47619048  0.00000000       0.009
  -0.47619048  0.33333333  0.00000000       0.009
   0.38095238  0.14285714  0.00000000       0.009
  -0.14285714 -0.47619048  0.00000000       0.009
   0.47619048  0.38095238  0.00000000       0.009
   0.42857143  0.14285714  0.00000000       0.009
   0.42857143  0.42857143  0.00000000       0.005
   0.19047619  0.19047619  0.00000000       0.005
  -0.19047619  0.38095238  0.00000000       0.009
   0.23809524  0.19047619  0.00000000       0.009
  -0.19047619  0.42857143  0.00000000       0.009
  -0.42857143  0.23809524  0.00000000       0.009
   0.28571429  0.19047619  0.00000000       0.009
  -0.19047619  0.47619048  0.00000000       0.009
  -0.47619048  0.28571429  0.00000000       0.009
   0.33333333  0.19047619  0.00000000       0.009
  -0.19047619 -0.47619048  0.00000000       0.009
   0.47619048  0.33333333  0.00000000       0.009
   0.38095238  0.19047619  0.00000000       0.009
  -0.19047619 -0.42857143  0.00000000       0.009
   0.42857143  0.38095238  0.00000000       0.009
   0.23809524  0.23809524  0.00000000       0.005
  -0.23809524  0.47619048  0.00000000       0.009
   0.28571429  0.23809524  0.00000000       0.009
  -0.23809524 -0.47619048  0.00000000       0.009
   0.47619048  0.28571429  0.00000000       0.009
   0.33333333  0.23809524  0.00000000       0.009
  -0.23809524 -0.42857143  0.00000000       0.009
   0.42857143  0.33333333  0.00000000       0.009
   0.38095238  0.23809524  0.00000000       0.009
   0.38095238  0.38095238  0.00000000       0.005
   0.28571429  0.28571429  0.00000000       0.005
  -0.28571429 -0.42857143  0.00000000       0.009
   0.33333333  0.28571429  0.00000000       0.009
  -0.28571429 -0.38095238  0.00000000       0.009
   0.38095238  0.33333333  0.00000000       0.009
   0.33333333  0.33333333  0.00000000       0.005
 
 position of ions in fractional coordinates (direct lattice) 
   0.33333000  0.66667000  0.50141563
   0.66667000  0.33333000  0.44218988
   0.66667000  0.33333000  0.57793449
 
 position of ions in cartesian coordinates  (Angst):
  -0.00001683  1.94346259 12.53539074
   1.68309639  0.97171672 11.05474693
   1.68309639  0.97171672 14.44836233
 


--------------------------------------------------------------------------------------------------------


 k-point   1 :   0.0000 0.0000 0.0000  plane waves:    6247
 k-point   2 :   0.0476 0.0000 0.0000  plane waves:    6201
 k-point   3 :  -0.0476 0.0476 0.0000  plane waves:    6201
 k-point   4 :   0.0952 0.0000 0.0000  plane waves:    6195
 k-point   5 :  -0.0952 0.0952 0.0000  plane waves:    6195
 k-point   6 :   0.1429 0.0000 0.0000  plane waves:    6193
 k-point   7 :  -0.1429 0.1429 0.0000  plane waves:    6193
 k-point   8 :   0.1905 0.0000 0.0000  plane waves:    6197
 k-point   9 :  -0.1905 0.1905 0.0000  plane waves:    6197
 k-point  10 :   0.2381 0.0000 0.0000  plane waves:    6205
 k-point  11 :  -0.2381 0.2381 0.0000  plane waves:    6205
 k-point  12 :   0.2857 0.0000 0.0000  plane waves:    6225
 k-point  13 :  -0.2857 0.2857 0.0000  plane waves:    6225
 k-point  14 :   0.3333 0.0000 0.0000  plane waves:    6222
 k-point  15 :  -0.3333 0.3333 0.0000  plane waves:    6222
 k-point  16 :   0.3810 0.0000 0.0000  plane waves:    6224
 k-point  17 :  -0.3810 0.3810 0.0000  plane waves:    6224
 k-point  18 :   0.4286 0.0000 0.0000  plane waves:    6244
 k-point  19 :  -0.4286 0.4286 0.0000  plane waves:    6244
 k-point  20 :   0.4762 0.0000 0.0000  plane waves:    6250
 k-point  21 :  -0.4762 0.4762 0.0000  plane waves:    6250
 k-point  22 :   0.0476 0.0476 0.0000  plane waves:    6197
 k-point  23 :  -0.0476 0.0952 0.0000  plane waves:    6197
 k-point  24 :   0.0952 0.0476 0.0000  plane waves:    6197
 k-point  25 :  -0.0476 0.1429 0.0000  plane waves:    6197
 k-point  26 :  -0.1429 0.0952 0.0000  plane waves:    6197
 k-point  27 :   0.1429 0.0476 0.0000  plane waves:    6200
 k-point  28 :  -0.0476 0.1905 0.0000  plane waves:    6200
 k-point  29 :  -0.1905 0.1429 0.0000  plane waves:    6200
 k-point  30 :   0.1905 0.0476 0.0000  plane waves:    6192
 k-point  31 :  -0.0476 0.2381 0.0000  plane waves:    6192
 k-point  32 :  -0.2381 0.1905 0.0000  plane waves:    6192
 k-point  33 :   0.2381 0.0476 0.0000  plane waves:    6205
 k-point  34 :  -0.0476 0.2857 0.0000  plane waves:    6205
 k-point  35 :  -0.2857 0.2381 0.0000  plane waves:    6205
 k-point  36 :   0.2857 0.0476 0.0000  plane waves:    6217
 k-point  37 :  -0.0476 0.3333 0.0000  plane waves:    6217
 k-point  38 :  -0.3333 0.2857 0.0000  plane waves:    6217
 k-point  39 :   0.3333 0.0476 0.0000  plane waves:    6224
 k-point  40 :  -0.0476 0.3810 0.0000  plane waves:    6224
 k-point  41 :  -0.3810 0.3333 0.0000  plane waves:    6224
 k-point  42 :   0.3810 0.0476 0.0000  plane waves:    6235
 k-point  43 :  -0.0476 0.4286 0.0000  plane waves:    6235
 k-point  44 :  -0.4286 0.3810 0.0000  plane waves:    6235
 k-point  45 :   0.4286 0.0476 0.0000  plane waves:    6245
 k-point  46 :  -0.0476 0.4762 0.0000  plane waves:    6245
 k-point  47 :  -0.4762 0.4286 0.0000  plane waves:    6245
 k-point  48 :   0.4762 0.0476 0.0000  plane waves:    6240
 k-point  49 :   0.4762 0.4762 0.0000  plane waves:    6240
 k-point  50 :   0.0952 0.0952 0.0000  plane waves:    6194
 k-point  51 :  -0.0952 0.1905 0.0000  plane waves:    6194
 k-point  52 :   0.1429 0.0952 0.0000  plane waves:    6199
 k-point  53 :  -0.0952 0.2381 0.0000  plane waves:    6199
 k-point  54 :  -0.2381 0.1429 0.0000  plane waves:    6199
 k-point  55 :   0.1905 0.0952 0.0000  plane waves:    6199
 k-point  56 :  -0.0952 0.2857 0.0000  plane waves:    6199
 k-point  57 :  -0.2857 0.1905 0.0000  plane waves:    6199
 k-point  58 :   0.2381 0.0952 0.0000  plane waves:    6215
 k-point  59 :  -0.0952 0.3333 0.0000  plane waves:    6215
 k-point  60 :  -0.3333 0.2381 0.0000  plane waves:    6215
 k-point  61 :   0.2857 0.0952 0.0000  plane waves:    6221
 k-point  62 :  -0.0952 0.3810 0.0000  plane waves:    6221
 k-point  63 :  -0.3810 0.2857 0.0000  plane waves:    6221
 k-point  64 :   0.3333 0.0952 0.0000  plane waves:    6240
 k-point  65 :  -0.0952 0.4286 0.0000  plane waves:    6240
 k-point  66 :  -0.4286 0.3333 0.0000  plane waves:    6240
 k-point  67 :   0.3810 0.0952 0.0000  plane waves:    6234
 k-point  68 :  -0.0952 0.4762 0.0000  plane waves:    6234
 k-point  69 :  -0.4762 0.3810 0.0000  plane waves:    6234
 k-point  70 :   0.4286 0.0952 0.0000  plane waves:    6228
 k-point  71 :  -0.0952-0.4762 0.0000  plane waves:    6228
 k-point  72 :   0.4762 0.4286 0.0000  plane waves:    6228
 k-point  73 :   0.1429 0.1429 0.0000  plane waves:    6184
 k-point  74 :  -0.1429 0.2857 0.0000  plane waves:    6184
 k-point  75 :   0.1905 0.1429 0.0000  plane waves:    6224
 k-point  76 :  -0.1429 0.3333 0.0000  plane waves:    6224
 k-point  77 :  -0.3333 0.1905 0.0000  plane waves:    6224
 k-point  78 :   0.2381 0.1429 0.0000  plane waves:    6219
 k-point  79 :  -0.1429 0.3810 0.0000  plane waves:    6219
 k-point  80 :  -0.3810 0.2381 0.0000  plane waves:    6219
 k-point  81 :   0.2857 0.1429 0.0000  plane waves:    6242
 k-point  82 :  -0.1429 0.4286 0.0000  plane waves:    6242
 k-point  83 :  -0.4286 0.2857 0.0000  plane waves:    6242
 k-point  84 :   0.3333 0.1429 0.0000  plane waves:    6237
 k-point  85 :  -0.1429 0.4762 0.0000  plane waves:    6237
 k-point  86 :  -0.4762 0.3333 0.0000  plane waves:    6237
 k-point  87 :   0.3810 0.1429 0.0000  plane waves:    6240
 k-point  88 :  -0.1429-0.4762 0.0000  plane waves:    6240
 k-point  89 :   0.4762 0.3810 0.0000  plane waves:    6240
 k-point  90 :   0.4286 0.1429 0.0000  plane waves:    6248
 k-point  91 :   0.4286 0.4286 0.0000  plane waves:    6248
 k-point  92 :   0.1905 0.1905 0.0000  plane waves:    6212
 k-point  93 :  -0.1905 0.3810 0.0000  plane waves:    6212
 k-point  94 :   0.2381 0.1905 0.0000  plane waves:    6239
 k-point  95 :  -0.1905 0.4286 0.0000  plane waves:    6239
 k-point  96 :  -0.4286 0.2381 0.0000  plane waves:    6239
 k-point  97 :   0.2857 0.1905 0.0000  plane waves:    6254
 k-point  98 :  -0.1905 0.4762 0.0000  plane waves:    6254
 k-point  99 :  -0.4762 0.2857 0.0000  plane waves:    6254
 k-point 100 :   0.3333 0.1905 0.0000  plane waves:    6250
 k-point 101 :  -0.1905-0.4762 0.0000  plane waves:    6250
 k-point 102 :   0.4762 0.3333 0.0000  plane waves:    6250
 k-point 103 :   0.3810 0.1905 0.0000  plane waves:    6252
 k-point 104 :  -0.1905-0.4286 0.0000  plane waves:    6252
 k-point 105 :   0.4286 0.3810 0.0000  plane waves:    6252
 k-point 106 :   0.2381 0.2381 0.0000  plane waves:    6252
 k-point 107 :  -0.2381 0.4762 0.0000  plane waves:    6252
 k-point 108 :   0.2857 0.2381 0.0000  plane waves:    6250
 k-point 109 :  -0.2381-0.4762 0.0000  plane waves:    6250
 k-point 110 :   0.4762 0.2857 0.0000  plane waves:    6250
 k-point 111 :   0.3333 0.2381 0.0000  plane waves:    6252
 k-point 112 :  -0.2381-0.4286 0.0000  plane waves:    6252
 k-point 113 :   0.4286 0.3333 0.0000  plane waves:    6252
 k-point 114 :   0.3810 0.2381 0.0000  plane waves:    6258
 k-point 115 :   0.3810 0.3810 0.0000  plane waves:    6258
 k-point 116 :   0.2857 0.2857 0.0000  plane waves:    6274
 k-point 117 :  -0.2857-0.4286 0.0000  plane waves:    6274
 k-point 118 :   0.3333 0.2857 0.0000  plane waves:    6280
 k-point 119 :  -0.2857-0.3810 0.0000  plane waves:    6280
 k-point 120 :   0.3810 0.3333 0.0000  plane waves:    6280
 k-point 121 :   0.3333 0.3333 0.0000  plane waves:    6264

 maximum and minimum number of plane-waves per node :      6280     6184

 maximum number of plane-waves:      6280
 maximum index in each direction: 
   IXMAX=    6   IYMAX=    6   IZMAX=   45
   IXMIN=   -6   IYMIN=   -6   IZMIN=  -45


 serial   3D FFT for wavefunctions
 parallel 3D FFT for charge:
    minimum data exchange during FFTs selected (reduces bandwidth)


 total amount of memory used by VASP MPI-rank0   387656. kBytes
=======================================================================

   base      :      30000. kBytes
   nonl-proj :     329825. kBytes
   fftplans  :       6661. kBytes
   grid      :       8796. kBytes
   one-center:         46. kBytes
   wavefun   :      12328. kBytes
 
     INWAV:  cpu time      0.0000: real time      0.0000
 Broyden mixing: mesh for mixing (old mesh)
   NGX = 13   NGY = 13   NGZ = 91
  (NGX  = 56   NGY  = 56   NGZ  =384)
  gives a total of  15379 points

 initial charge density was supplied:
 charge density of overlapping atoms calculated
 number of electron      26.0000000 magnetization 
 keeping initial charge density in first step


--------------------------------------------------------------------------------------------------------


 Maximum index for augmentation-charges         9946 (set IRDMAX)


--------------------------------------------------------------------------------------------------------


 First call to EWALD:  gamma=   0.283
 Maximum number of real-space cells 5x 5x 1
 Maximum number of reciprocal cells 2x 2x10

    FEWALD:  cpu time      0.0008: real time      0.0008


--------------------------------------- Ionic step        1  -------------------------------------------




--------------------------------------- Iteration      1(   1)  ---------------------------------------


    POTLOK:  cpu time      0.0247: real time      0.0249
    SETDIJ:  cpu time      0.1415: real time      0.1422
     EDDAV:  cpu time      7.3288: real time      7.3646
       DOS:  cpu time      0.0015: real time      0.0015
    --------------------------------------------
      LOOP:  cpu time      7.4965: real time      7.5332

 eigenvalue-minimisations  : 11552
 total energy-change (2. order) : 0.4684084E+02  (-0.1420557E+04)
 number of electron      26.0000000 magnetization 
 augmentation part       26.0000000 magnetization 

 Free energy of the ion-electron system (eV)
  ---------------------------------------------------
  alpha Z        PSCENC =        21.25741596
  Ewald energy   TEWEN  =      7092.77194033
  -Hartree energ DENC   =     -9089.38359313
  -exchange      EXHF   =         0.00000000
  -V(xc)+E(xc)   XCENC  =        41.95543878
  PAW double counting   =      1888.69175140    -1824.50955640
  entropy T*S    EENTRO =        -0.00203322
  eigenvalues    EBANDS =      -449.60892892
  atomic energy  EATOM  =      2365.66840301
  Solvation  Ediel_sol  =         0.00000000
  ---------------------------------------------------
  free energy    TOTEN  =        46.84083782 eV

  energy without entropy =       46.84287104  energy(sigma->0) =       46.84185443


--------------------------------------------------------------------------------------------------------




--------------------------------------- Iteration      1(   2)  ---------------------------------------


     EDDAV:  cpu time      7.5998: real time      7.6367
       DOS:  cpu time      0.0005: real time      0.0005
    --------------------------------------------
      LOOP:  cpu time      7.6003: real time      7.6372

 eigenvalue-minimisations  : 11072
 total energy-change (2. order) :-0.6827856E+02  (-0.6789658E+02)
 number of electron      26.0000000 magnetization 
 augmentation part       26.0000000 magnetization 

 Free energy of the ion-electron system (eV)
  ---------------------------------------------------
  alpha Z        PSCENC =        21.25741596
  Ewald energy   TEWEN  =      7092.77194033
  -Hartree energ DENC   =     -9089.38359313
  -exchange      EXHF   =         0.00000000
  -V(xc)+E(xc)   XCENC  =        41.95543878
  PAW double counting   =      1888.69175140    -1824.50955640
  entropy T*S    EENTRO =        -0.00000000
  eigenvalues    EBANDS =      -517.88952130
  atomic energy  EATOM  =      2365.66840301
  Solvation  Ediel_sol  =         0.00000000
  ---------------------------------------------------
  free energy    TOTEN  =       -21.43772134 eV

  energy without entropy =      -21.43772134  energy(sigma->0) =      -21.43772134


--------------------------------------------------------------------------------------------------------




--------------------------------------- Iteration      1(   3)  ---------------------------------------


     EDDAV:  cpu time      5.4101: real time      5.4357
       DOS:  cpu time      0.0010: real time      0.0010
    --------------------------------------------
      LOOP:  cpu time      5.4111: real time      5.4367

 eigenvalue-minimisations  :  9920
 total energy-change (2. order) :-0.1020216E+01  (-0.1020216E+01)
 number of electron      26.0000000 magnetization 
 augmentation part       26.0000000 magnetization 

 Free energy of the ion-electron system (eV)
  ---------------------------------------------------
  alpha Z        PSCENC =        21.25741596
  Ewald energy   TEWEN  =      7092.77194033
  -Hartree energ DENC   =     -9089.38359313
  -exchange      EXHF   =         0.00000000
  -V(xc)+E(xc)   XCENC  =        41.95543878
  PAW double counting   =      1888.69175140    -1824.50955640
  entropy T*S    EENTRO =        -0.00000000
  eigenvalues    EBANDS =      -518.90973718
  atomic energy  EATOM  =      2365.66840301
  Solvation  Ediel_sol  =         0.00000000
  ---------------------------------------------------
  free energy    TOTEN  =       -22.45793722 eV

  energy without entropy =      -22.45793722  energy(sigma->0) =      -22.45793722


--------------------------------------------------------------------------------------------------------




--------------------------------------- Iteration      1(   4)  ---------------------------------------


     EDDAV:  cpu time      8.3984: real time      8.4395
       DOS:  cpu time      0.0007: real time      0.0007
    --------------------------------------------
      LOOP:  cpu time      8.3991: real time      8.4402

 eigenvalue-minimisations  : 13824
 total energy-change (2. order) :-0.8466205E-02  (-0.8466205E-02)
 number of electron      26.0000000 magnetization 
 augmentation part       26.0000000 magnetization 

 Free energy of the ion-electron system (eV)
  ---------------------------------------------------
  alpha Z        PSCENC =        21.25741596
  Ewald energy   TEWEN  =      7092.77194033
  -Hartree energ DENC   =     -9089.38359313
  -exchange      EXHF   =         0.00000000
  -V(xc)+E(xc)   XCENC  =        41.95543878
  PAW double counting   =      1888.69175140    -1824.50955640
  entropy T*S    EENTRO =        -0.00000000
  eigenvalues    EBANDS =      -518.91820338
  atomic energy  EATOM  =      2365.66840301
  Solvation  Ediel_sol  =         0.00000000
  ---------------------------------------------------
  free energy    TOTEN  =       -22.46640342 eV

  energy without entropy =      -22.46640342  energy(sigma->0) =      -22.46640342


--------------------------------------------------------------------------------------------------------




--------------------------------------- Iteration      1(   5)  ---------------------------------------


     EDDAV:  cpu time      6.3068: real time      6.3371
       DOS:  cpu time      0.0005: real time      0.0005
    CHARGE:  cpu time      0.4241: real time      0.4260
    MIXING:  cpu time      0.0018: real time      0.0018
    --------------------------------------------
      LOOP:  cpu time      6.7332: real time      6.7654

 eigenvalue-minimisations  :  9792
 total energy-change (2. order) :-0.1517438E-04  (-0.1517436E-04)
 number of electron      26.0000000 magnetization 
 augmentation part        1.9727011 magnetization 

 Broyden mixing:
  rms(total) = 0.21542E+01    rms(broyden)= 0.21542E+01
  rms(prec ) = 0.21686E+01
  weight for this iteration     100.00

 Free energy of the ion-electron system (eV)
  ---------------------------------------------------
  alpha Z        PSCENC =        21.25741596
  Ewald energy   TEWEN  =      7092.77194033
  -Hartree energ DENC   =     -9089.38359313
  -exchange      EXHF   =         0.00000000
  -V(xc)+E(xc)   XCENC  =        41.95543878
  PAW double counting   =      1888.69175140    -1824.50955640
  entropy T*S    EENTRO =        -0.00000000
  eigenvalues    EBANDS =      -518.91821856
  atomic energy  EATOM  =      2365.66840301
  Solvation  Ediel_sol  =         0.00000000
  ---------------------------------------------------
  free energy    TOTEN  =       -22.46641860 eV

  energy without entropy =      -22.46641860  energy(sigma->0) =      -22.46641860


--------------------------------------------------------------------------------------------------------




--------------------------------------- Iteration      1(   6)  ---------------------------------------


    POTLOK:  cpu time      0.0214: real time      0.0215
    SETDIJ:  cpu time      0.1326: real time      0.1333
     EDDAV:  cpu time      7.2026: real time      7.2368
       DOS:  cpu time      0.0008: real time      0.0008
    CHARGE:  cpu time      0.3187: real time      0.3202
    MIXING:  cpu time      0.0016: real time      0.0016
    --------------------------------------------
      LOOP:  cpu time      7.6778: real time      7.7143

 eigenvalue-minimisations  : 11680
 total energy-change (2. order) : 0.9425475E+00  (-0.8502154E+00)
 number of electron      26.0000000 magnetization 
 augmentation part        2.3330574 magnetization 

 Broyden mixing:
  rms(total) = 0.91466E+00    rms(broyden)= 0.91466E+00
  rms(prec ) = 0.92268E+00
  weight for this iteration     100.00

 eigenvalues of (default mixing * dielectric matrix)
  average eigenvalue GAMMA=   1.4169
  1.4169

 Free energy of the ion-electron system (eV)
  ---------------------------------------------------
  alpha Z        PSCENC =        21.25741596
  Ewald energy   TEWEN  =      7092.77194033
  -Hartree energ DENC   =     -9069.76258427
  -exchange      EXHF   =         0.00000000
  -V(xc)+E(xc)   XCENC  =        41.40508650
  PAW double counting   =      2473.45186313    -2412.25384566
  entropy T*S    EENTRO =        -0.00000000
  eigenvalues    EBANDS =      -534.06215012
  atomic energy  EATOM  =      2365.66840301
  Solvation  Ediel_sol  =         0.00000000
  ---------------------------------------------------
  free energy    TOTEN  =       -21.52387112 eV

  energy without entropy =      -21.52387112  energy(sigma->0) =      -21.52387112


--------------------------------------------------------------------------------------------------------




--------------------------------------- Iteration      1(   7)  ---------------------------------------


    POTLOK:  cpu time      0.0155: real time      0.0155
    SETDIJ:  cpu time      0.1053: real time      0.1057
     EDDAV:  cpu time      7.9372: real time      7.9750
       DOS:  cpu time      0.0009: real time      0.0009
    CHARGE:  cpu time      0.4424: real time      0.4446
    MIXING:  cpu time      0.0037: real time      0.0037
    --------------------------------------------
      LOOP:  cpu time      8.5049: real time      8.5455

 eigenvalue-minimisations  : 12672
 total energy-change (2. order) : 0.8471338E-01  (-0.3371092E+00)
 number of electron      26.0000000 magnetization 
 augmentation part        2.1514308 magnetization 

 Broyden mixing:
  rms(total) = 0.42330E+00    rms(broyden)= 0.42330E+00
  rms(prec ) = 0.43430E+00
  weight for this iteration     100.00

 eigenvalues of (default mixing * dielectric matrix)
  average eigenvalue GAMMA=   1.4203
  0.7686  2.0719

 Free energy of the ion-electron system (eV)
  ---------------------------------------------------
  alpha Z        PSCENC =        21.25741596
  Ewald energy   TEWEN  =      7092.77194033
  -Hartree energ DENC   =     -9086.28832331
  -exchange      EXHF   =         0.00000000
  -V(xc)+E(xc)   XCENC  =        41.48358014
  PAW double counting   =      3034.33552354    -2973.88694531
  entropy T*S    EENTRO =        -0.00000000
  eigenvalues    EBANDS =      -516.78075211
  atomic energy  EATOM  =      2365.66840301
  Solvation  Ediel_sol  =         0.00000000
  ---------------------------------------------------
  free energy    TOTEN  =       -21.43915774 eV

  energy without entropy =      -21.43915774  energy(sigma->0) =      -21.43915774


--------------------------------------------------------------------------------------------------------




--------------------------------------- Iteration      1(   8)  ---------------------------------------


    POTLOK:  cpu time      0.0246: real time      0.0247
    SETDIJ:  cpu time      0.1474: real time      0.1480
     EDDAV:  cpu time      7.1469: real time      7.1803
       DOS:  cpu time      0.0011: real time      0.0011
    CHARGE:  cpu time      0.4605: real time      0.4625
    MIXING:  cpu time      0.0017: real time      0.0017
    --------------------------------------------
      LOOP:  cpu time      7.7821: real time      7.8183

 eigenvalue-minimisations  : 11264
 total energy-change (2. order) : 0.9559765E-01  (-0.1368144E+00)
 number of electron      26.0000000 magnetization 
 augmentation part        2.2995206 magnetization 

 Broyden mixing:
  rms(total) = 0.10255E+00    rms(broyden)= 0.10254E+00
  rms(prec ) = 0.10847E+00
  weight for this iteration     100.00

 eigenvalues of (default mixing * dielectric matrix)
  average eigenvalue GAMMA=   1.3276
  2.1777  1.1687  0.6362

 Free energy of the ion-electron system (eV)
  ---------------------------------------------------
  alpha Z        PSCENC =        21.25741596
  Ewald energy   TEWEN  =      7092.77194033
  -Hartree energ DENC   =     -9078.28153320
  -exchange      EXHF   =         0.00000000
  -V(xc)+E(xc)   XCENC  =        41.32142084
  PAW double counting   =      3340.29828358    -3280.95325417
  entropy T*S    EENTRO =        -0.00000000
  eigenvalues    EBANDS =      -523.42623643
  atomic energy  EATOM  =      2365.66840301
  Solvation  Ediel_sol  =         0.00000000
  ---------------------------------------------------
  free energy    TOTEN  =       -21.34356009 eV

  energy without entropy =      -21.34356009  energy(sigma->0) =      -21.34356009


--------------------------------------------------------------------------------------------------------




--------------------------------------- Iteration      1(   9)  ---------------------------------------


    POTLOK:  cpu time      0.0166: real time      0.0167
    SETDIJ:  cpu time      0.1297: real time      0.1302
     EDDAV:  cpu time      8.9917: real time      9.0339
       DOS:  cpu time      0.0004: real time      0.0004
    CHARGE:  cpu time      0.4021: real time      0.4043
    MIXING:  cpu time      0.0048: real time      0.0048
    --------------------------------------------
      LOOP:  cpu time      9.5454: real time      9.5903

 eigenvalue-minimisations  : 14272
 total energy-change (2. order) : 0.1126772E-01  (-0.8834946E-02)
 number of electron      26.0000000 magnetization 
[...]
     23       7.5833      0.00000
     24       7.8541      0.00000
     25       8.1825      0.00000
     26       8.5420      0.00000
     27       8.6044      0.00000
     28       8.8494      0.00000
     29       9.1135      0.00000
     30       9.4215      0.00000
     31       9.5980      0.00000
     32       9.8527      0.00000

 k-point   114 :       0.3810    0.2381    0.0000
  band No.  band energies     occupation 
      1     -75.8355      2.00000
      2     -40.1183      2.00000
      3     -40.0608      2.00000
      4     -40.0342      2.00000
      5     -14.1419      2.00000
      6     -12.3127      2.00000
      7      -7.4470      2.00000
      8      -6.9087      2.00000
      9      -5.7777      2.00000
     10      -5.2681      2.00000
     11      -5.0850      2.00000
     12      -3.8474      2.00000
     13      -2.0739      2.00000
     14      -0.2382      0.00000
     15       0.7790      0.00000
     16       1.4087      0.00000
     17       2.3666      0.00000
     18       3.2594      0.00000
     19       4.8480      0.00000
     20       6.1559      0.00000
     21       6.6415      0.00000
     22       7.4737      0.00000
     23       7.8884      0.00000
     24       8.2028      0.00000
     25       8.3693      0.00000
     26       8.5495      0.00000
     27       8.6192      0.00000
     28       8.7988      0.00000
     29       9.0764      0.00000
     30       9.2135      0.00000
     31       9.3224      0.00000
     32       9.7765      0.00000

 k-point   115 :       0.3810    0.3810    0.0000
  band No.  band energies     occupation 
      1     -75.8355      2.00000
      2     -40.1183      2.00000
      3     -40.0608      2.00000
      4     -40.0342      2.00000
      5     -14.1419      2.00000
      6     -12.3127      2.00000
      7      -7.4470      2.00000
      8      -6.9087      2.00000
      9      -5.7777      2.00000
     10      -5.2681      2.00000
     11      -5.0850      2.00000
     12      -3.8474      2.00000
     13      -2.0739      2.00000
     14      -0.2382      0.00000
     15       0.7790      0.00000
     16       1.4087      0.00000
     17       2.3665      0.00000
     18       3.2594      0.00000
     19       4.8480      0.00000
     20       6.1558      0.00000
     21       6.6415      0.00000
     22       7.4737      0.00000
     23       7.8884      0.00000
     24       8.2028      0.00000
     25       8.3693      0.00000
     26       8.5496      0.00000
     27       8.6192      0.00000
     28       8.7988      0.00000
     29       9.0764      0.00000
     30       9.2135      0.00000
     31       9.3225      0.00000
     32       9.7765      0.00000

 k-point   116 :       0.2857    0.2857    0.0000
  band No.  band energies     occupation 
      1     -75.8355      2.00000
      2     -40.1130      2.00000
      3     -40.0637      2.00000
      4     -40.0346      2.00000
      5     -14.1586      2.00000
      6     -12.3694      2.00000
      7      -7.2527      2.00000
      8      -6.8802      2.00000
      9      -5.7671      2.00000
     10      -5.3784      2.00000
     11      -5.1660      2.00000
     12      -3.7943      2.00000
     13      -2.1362      2.00000
     14      -0.2304      0.00000
     15       0.6979      0.00000
     16       1.3542      0.00000
     17       2.6091      0.00000
     18       3.2695      0.00000
     19       4.7763      0.00000
     20       5.9281      0.00000
     21       6.6750      0.00000
     22       7.4948      0.00000
     23       7.8398      0.00000
     24       7.9167      0.00000
     25       8.1890      0.00000
     26       8.4202      0.00000
     27       8.5655      0.00000
     28       9.1945      0.00000
     29       9.4134      0.00000
     30       9.6542      0.00000
     31       9.8846      0.00000
     32       9.9479      0.00000

 k-point   117 :      -0.2857   -0.4286    0.0000
  band No.  band energies     occupation 
      1     -75.8355      2.00000
      2     -40.1130      2.00000
      3     -40.0637      2.00000
      4     -40.0346      2.00000
      5     -14.1586      2.00000
      6     -12.3694      2.00000
      7      -7.2527      2.00000
      8      -6.8802      2.00000
      9      -5.7670      2.00000
     10      -5.3784      2.00000
     11      -5.1660      2.00000
     12      -3.7943      2.00000
     13      -2.1362      2.00000
     14      -0.2304      0.00000
     15       0.6979      0.00000
     16       1.3542      0.00000
     17       2.6091      0.00000
     18       3.2695      0.00000
     19       4.7762      0.00000
     20       5.9281      0.00000
     21       6.6750      0.00000
     22       7.4948      0.00000
     23       7.8398      0.00000
     24       7.9167      0.00000
     25       8.1890      0.00000
     26       8.4202      0.00000
     27       8.5656      0.00000
     28       9.1946      0.00000
     29       9.4134      0.00000
     30       9.6542      0.00000
     31       9.8846      0.00000
     32       9.9480      0.00000

 k-point   118 :       0.3333    0.2857    0.0000
  band No.  band energies     occupation 
      1     -75.8353      2.00000
      2     -40.1090      2.00000
      3     -40.0738      2.00000
      4     -40.0337      2.00000
      5     -14.1201      2.00000
      6     -12.2569      2.00000
      7      -7.2227      2.00000
      8      -6.9590      2.00000
      9      -5.9751      2.00000
     10      -5.3809      2.00000
     11      -5.1572      2.00000
     12      -3.8675      2.00000
     13      -2.0364      2.00000
     14      -0.3621      0.00000
     15       0.7258      0.00000
     16       1.4831      0.00000
     17       2.7125      0.00000
     18       3.1559      0.00000
     19       4.4677      0.00000
     20       6.4135      0.00000
     21       6.8966      0.00000
     22       7.5018      0.00000
     23       8.0567      0.00000
     24       8.2434      0.00000
     25       8.4650      0.00000
     26       8.8319      0.00000
     27       8.9582      0.00000
     28       9.0600      0.00000
     29       9.2895      0.00000
     30       9.5177      0.00000
     31       9.6183      0.00000
     32       9.8834      0.00000

 k-point   119 :      -0.2857   -0.3810    0.0000
  band No.  band energies     occupation 
      1     -75.8353      2.00000
      2     -40.1090      2.00000
      3     -40.0738      2.00000
      4     -40.0337      2.00000
      5     -14.1201      2.00000
      6     -12.2569      2.00000
      7      -7.2227      2.00000
      8      -6.9590      2.00000
      9      -5.9751      2.00000
     10      -5.3809      2.00000
     11      -5.1572      2.00000
     12      -3.8675      2.00000
     13      -2.0364      2.00000
     14      -0.3620      0.00000
     15       0.7258      0.00000
     16       1.4831      0.00000
     17       2.7125      0.00000
     18       3.1559      0.00000
     19       4.4677      0.00000
     20       6.4136      0.00000
     21       6.8966      0.00000
     22       7.5018      0.00000
     23       8.0567      0.00000
     24       8.2434      0.00000
     25       8.4650      0.00000
     26       8.8319      0.00000
     27       8.9582      0.00000
     28       9.0600      0.00000
     29       9.2895      0.00000
     30       9.5177      0.00000
     31       9.6183      0.00000
     32       9.8834      0.00000

 k-point   120 :       0.3810    0.3333    0.0000
  band No.  band energies     occupation 
      1     -75.8353      2.00000
      2     -40.1090      2.00000
      3     -40.0738      2.00000
      4     -40.0337      2.00000
      5     -14.1201      2.00000
      6     -12.2569      2.00000
      7      -7.2227      2.00000
      8      -6.9590      2.00000
      9      -5.9751      2.00000
     10      -5.3810      2.00000
     11      -5.1572      2.00000
     12      -3.8675      2.00000
     13      -2.0364      2.00000
     14      -0.3620      0.00000
     15       0.7258      0.00000
     16       1.4831      0.00000
     17       2.7124      0.00000
     18       3.1559      0.00000
     19       4.4677      0.00000
     20       6.4135      0.00000
     21       6.8966      0.00000
     22       7.5018      0.00000
     23       8.0567      0.00000
     24       8.2434      0.00000
     25       8.4650      0.00000
     26       8.8319      0.00000
     27       8.9582      0.00000
     28       9.0600      0.00000
     29       9.2895      0.00000
     30       9.5177      0.00000
     31       9.6183      0.00000
     32       9.8834      0.00000

 k-point   121 :       0.3333    0.3333    0.0000
  band No.  band energies     occupation 
      1     -75.8353      2.00000
      2     -40.1020      2.00000
      3     -40.0832      2.00000
      4     -40.0333      2.00000
      5     -14.1047      2.00000
      6     -12.2127      2.00000
      7      -7.0546      2.00000
      8      -7.0542      2.00000
      9      -6.1533      2.00000
     10      -5.3902      2.00000
     11      -5.1580      2.00000
     12      -3.8953      2.00000
     13      -1.9896      2.00000
     14      -0.4450      0.00000
     15       0.7111      0.00000
     16       1.5620      0.00000
     17       2.9636      0.00000
     18       2.9845      0.00000
     19       4.2581      0.00000
     20       6.8041      0.00000
     21       6.9881      0.00000
     22       7.2612      0.00000
     23       8.1146      0.00000
     24       8.4925      0.00000
     25       8.8636      0.00000
     26       8.9644      0.00000
     27       9.0667      0.00000
     28       9.1801      0.00000
     29       9.4230      0.00000
     30       9.4617      0.00000
     31       9.6559      0.00000
     32       9.7831      0.00000


--------------------------------------------------------------------------------------------------------


 soft charge-density along one line, spin component           1
         0         1         2         3         4         5         6         7         8         9
 total charge-density along one line
 
 pseudopotential strength for first ion, spin component:           1
-28.824  14.537  -0.000  -0.028   0.000   0.000   0.020  -0.000
 14.537   3.828   0.000   0.005  -0.000  -0.000   0.002   0.000
 -0.000   0.000 -31.550  -0.000   0.000  11.373   0.000  -0.000
 -0.028   0.005  -0.000 -31.538   0.000   0.000  11.363  -0.000
  0.000  -0.000   0.000   0.000 -31.550  -0.000  -0.000  11.373
  0.000  -0.000  11.373   0.000  -0.000   4.628  -0.000   0.000
  0.020   0.002   0.000  11.363  -0.000  -0.000   4.631   0.000
 -0.000   0.000  -0.000  -0.000  11.373   0.000   0.000   4.628
  0.000  -0.000   0.000   0.000   0.007  -0.000   0.000  -0.005
 -0.000   0.000  -0.019  -0.000   0.000   0.012   0.000   0.000
  0.002  -0.002  -0.000  -0.017   0.000  -0.000   0.011   0.000
  0.000  -0.000   0.000   0.000  -0.019   0.000  -0.000   0.012
 -0.000   0.000   0.007  -0.000   0.000  -0.005  -0.000  -0.000
  0.000  -0.000   0.000   0.000   0.009  -0.000   0.000  -0.006
 -0.000   0.000  -0.022  -0.000   0.000   0.014   0.000   0.000
  0.002  -0.003  -0.000  -0.020   0.000  -0.000   0.013   0.000
  0.000  -0.000   0.000   0.000  -0.022   0.000  -0.000   0.014
 -0.000   0.000   0.009  -0.000   0.000  -0.006  -0.000  -0.000
 total augmentation occupancy for first ion, spin component:           1
  1.998  -0.027  -0.000   0.000   0.000  -0.000   0.001   0.000   0.000  -0.000   0.011   0.000  -0.000  -0.000   0.000  -0.010
 -0.027   1.068   0.000   0.007  -0.000   0.000  -0.022  -0.000   0.000  -0.000   0.244   0.000  -0.000  -0.000   0.000  -0.120
 -0.000   0.000   1.992  -0.000   0.000  -0.020  -0.000   0.000  -0.000  -0.002   0.000  -0.000  -0.039   0.000   0.006  -0.000
  0.000   0.007  -0.000   1.993   0.000  -0.000  -0.018   0.000  -0.000   0.000   0.021  -0.000   0.000   0.000  -0.000  -0.016
  0.000  -0.000   0.000   0.000   1.992   0.000   0.000  -0.020  -0.039  -0.000  -0.000  -0.002  -0.000   0.034   0.000   0.000
 -0.000   0.000  -0.020  -0.000   0.000   0.184  -0.000   0.000  -0.000  -0.092   0.000  -0.000  -0.282   0.000   0.077  -0.000
  0.001  -0.022  -0.000  -0.018   0.000  -0.000   0.222   0.000  -0.000   0.000   0.085  -0.000   0.000   0.000  -0.000  -0.080
  0.000  -0.000   0.000   0.000  -0.020   0.000   0.000   0.184  -0.282  -0.000  -0.000  -0.092  -0.000   0.199   0.000   0.000
  0.000   0.000  -0.000  -0.000  -0.039  -0.000  -0.000  -0.282   5.383   0.000   0.000   0.750  -0.000  -2.950  -0.000  -0.000
 -0.000  -0.000  -0.002   0.000  -0.000  -0.092   0.000  -0.000   0.000   7.667  -0.000   0.000   0.750  -0.000  -4.539   0.000
  0.011   0.244   0.000   0.021  -0.000   0.000   0.085  -0.000   0.000  -0.000   4.520   0.000  -0.000  -0.000   0.000  -2.316
  0.000   0.000  -0.000  -0.000  -0.002  -0.000  -0.000  -0.092   0.750   0.000   0.000   7.666   0.000  -0.550  -0.000  -0.000
 -0.000  -0.000  -0.039   0.000  -0.000  -0.282   0.000  -0.000  -0.000   0.750  -0.000   0.000   5.383   0.000  -0.549   0.000
 -0.000  -0.000   0.000   0.000   0.034   0.000   0.000   0.199  -2.950  -0.000  -0.000  -0.550   0.000   1.763   0.000   0.000
  0.000   0.000   0.006  -0.000   0.000   0.077  -0.000   0.000  -0.000  -4.539   0.000  -0.000  -0.549   0.000   2.787  -0.000
 -0.010  -0.120  -0.000  -0.016   0.000  -0.000  -0.080   0.000  -0.000   0.000  -2.316  -0.000   0.000   0.000  -0.000   1.326
 -0.000  -0.000   0.000   0.000   0.006   0.000   0.000   0.077  -0.549  -0.000  -0.000  -4.538  -0.000   0.371   0.000   0.000
  0.000   0.000   0.034  -0.000   0.000   0.199  -0.000   0.000   0.000  -0.550   0.000  -0.000  -2.950  -0.000   0.371  -0.000


------------------------ aborting loop because EDIFF is reached ----------------------------------------





 total charge

# of ion       s       p       d       tot
------------------------------------------
    1        2.303   6.259   3.359  11.920
    2        1.351   2.342   0.000   3.693
    3        1.385   2.008   0.073   3.465
--------------------------------------------------
tot          5.039  10.608   3.431  19.079
 
    CHARGE:  cpu time      0.4791: real time      0.4812
    FORLOC:  cpu time      0.0047: real time      0.0047
    FORNL :  cpu time      0.3911: real time      0.3930
    STRESS:  cpu time      7.2436: real time      7.2810
    FORCOR:  cpu time      0.0159: real time      0.0160
    FORHAR:  cpu time      0.0039: real time      0.0039
    MIXING:  cpu time      0.0009: real time      0.0009
    OFIELD:  cpu time      0.0000: real time      0.0000

  FORCE on cell =-STRESS in cart. coord.  units (eV):
  Direction    XX          YY          ZZ          XY          YZ          ZX
  --------------------------------------------------------------------------------------
  Alpha Z    21.25742    21.25742    21.25742
  Ewald    8419.89882  8419.90831 -9747.03516     0.00822    -0.00096     0.00166
  Hartree  8842.22159  8842.22480 -8597.27234     0.00278    -0.00041     0.00070
  E(xc)    -111.43851  -111.43851  -111.98191     0.00000    -0.00001     0.00002
  Local  -17682.33311-17682.34552 17917.71217    -0.01074     0.00134    -0.00233
  n-local   179.40263   179.40217   186.76146     0.00064     0.08012     0.04634
  augment    22.57993    22.57991    21.17118    -0.00001    -0.00002     0.00003
  Kinetic   307.80547   309.01622   309.36266    -0.34995    -0.00792    -0.00460
  Fock        0.00000     0.00000     0.00000     0.00000     0.00000     0.00000
  -------------------------------------------------------------------------------------
  Total      -0.00062    -0.00035    -0.02451     0.00023    -0.00001     0.00001
  in kB      -0.00402    -0.00230    -0.16006     0.00148    -0.00005     0.00008
  external pressure =       -0.06 kB  Pullay stress =        0.00 kB


 VOLUME and BASIS-vectors are now :
 -----------------------------------------------------------------------------
  energy-cutoff  :      500.00
  volume of cell :      245.32
      direct lattice vectors                 reciprocal lattice vectors
     3.366159116  0.000000000  0.000000000     0.297074489  0.171516037  0.000000000
    -1.683079558  2.915179303  0.000000000     0.000000000  0.343032073  0.000000000
     0.000000000  0.000000000 25.000000000     0.000000000  0.000000000  0.040000000

  length of vectors
     3.366159116  3.366159112 25.000000000     0.343032073  0.343032073  0.040000000


 FORCES acting on ions
    electron-ion (+dipol)            ewald-force                    non-local-force                 convergence-correction
 -----------------------------------------------------------------------------------------------
   -.354E-02 0.204E-02 0.180E+02   0.383E-02 -.221E-02 -.202E+02   0.261E-03 -.151E-03 0.226E+01   0.512E-08 -.296E-08 0.132E-04
   0.269E-02 -.156E-02 0.838E+03   -.265E-02 0.153E-02 -.844E+03   -.364E-03 0.210E-03 0.578E+01   -.177E-08 0.102E-08 0.203E-05
   0.125E-02 -.725E-03 -.860E+03   -.118E-02 0.684E-03 0.864E+03   -.311E-03 0.179E-03 -.459E+01   -.377E-10 0.218E-10 0.143E-06
 -----------------------------------------------------------------------------------------------
   0.413E-03 -.239E-03 -.345E+01   0.503E-14 0.278E-13 0.000E+00   -.413E-03 0.239E-03 0.345E+01   0.331E-08 -.191E-08 0.154E-04
 
 
 POSITION                                       TOTAL-FORCE (eV/Angst)
 -----------------------------------------------------------------------------------
     -0.00002      1.94346     12.53539         0.000558     -0.000322      0.000266
      1.68310      0.97172     11.05475        -0.000318      0.000184     -0.000472
      1.68310      0.97172     14.44836        -0.000240      0.000138      0.000207
 -----------------------------------------------------------------------------------
    total drift:                                0.000000     -0.000000      0.000194


--------------------------------------------------------------------------------------------------------



  FREE ENERGIE OF THE ION-ELECTRON SYSTEM (eV)
  ---------------------------------------------------
  free  energy   TOTEN  =       -21.33148625 eV

  energy  without entropy=      -21.33148625  energy(sigma->0) =      -21.33148625
 


--------------------------------------------------------------------------------------------------------


    POTLOK:  cpu time      0.1504: real time      0.1512


--------------------------------------------------------------------------------------------------------


 writing wavefunctions
     LOOP+:  cpu time    213.0918: real time    214.1006
    4ORBIT:  cpu time      0.0000: real time      0.0000



 total charge

# of ion       s       p       d       tot
------------------------------------------
    1        2.303   6.259   3.359  11.920
    2        1.351   2.342   0.000   3.693
    3        1.385   2.008   0.073   3.465
--------------------------------------------------
tot          5.039  10.608   3.431  19.079
 

 total amount of memory used by VASP MPI-rank0   387656. kBytes
=======================================================================

   base      :      30000. kBytes
   nonl-proj :     329825. kBytes
   fftplans  :       6661. kBytes
   grid      :       8796. kBytes
   one-center:         46. kBytes
   wavefun   :      12328. kBytes
 
  
  
 General timing and accounting informations for this job:
 ========================================================
  
                  Total CPU time used (sec):      218.384
                            User time (sec):      150.260
                          System time (sec):       68.124
                         Elapsed time (sec):      219.941
  
                   Maximum memory used (kb):      594660.
                   Average memory used (kb):          N/A
  
                          Minor page faults:       164541
                          Major page faults:           28
                 Voluntary context switches:         1201
