<?xml version="1.0" encoding="ISO-8859-1"?>
<modeling>
 <generator>
  <i name="program" type="string">vasp </i>
  <i name="version" type="string">6.4.0  </i>
  <i name="subversion" type="string">14Feb23 (build Nov 26 2024 22:10:46) complex                          parallel </i>
  <i name="platform" type="string">LinuxIFC </i>
  <i name="date" type="string">2025 04 05 </i>
  <i name="time" type="string">20:07:28 </i>
 </generator>
 <incar>
  <i type="int" name="ISTART">     1</i>
  <i type="string" name="PREC">Accurate      (Accurate strictly avoids any aliasing or wrap around errors)</i>
  <i type="logical" name="ADDGRID"> T  </i>
  <i type="int" name="ISPIN">     1</i>
  <i type="int" name="NELM">    60</i>
  <i name="EDIFF">      0.00000001</i>
  <i name="ENCUT">    500.00000000</i>
  <i type="int" name="NEDOS">  2001</i>
  <i type="logical" name="LREAL"> F  </i>
  <i type="int" name="ISMEAR">     0</i>
  <i name="SIGMA">      0.05000000</i>
  <i type="logical" name="LWAVE"> T  </i>
  <i type="logical" name="LCHARG"> T  </i>
  <i type="logical" name="LVTOT"> T  </i>
  <i type="logical" name="LVHAR"> T  </i>
  <i type="int" name="LORBIT">    11</i>
  <i type="logical" name="LASPH"> T  </i>
 </incar>
 <primitive_cell>
  <structure name="primitive_cell" >
   <crystal>
    <varray name="basis" >
     <v>       3.36615912       0.00000000       0.00000000 </v>
     <v>      -1.68307956       2.91517930       0.00000000 </v>
     <v>       0.00000000       0.00000000      25.00000000 </v>
    </varray>
    <i name="volume">    245.32393458 </i>
    <varray name="rec_basis" >
     <v>       0.29707449       0.17151604       0.00000000 </v>
     <v>       0.00000000       0.34303207       0.00000000 </v>
     <v>       0.00000000       0.00000000       0.04000000 </v>
    </varray>
   </crystal>
   <varray name="positions" >
    <v>       0.33333000       0.66667000       0.50141563 </v>
    <v>       0.66667000       0.33333000       0.44218988 </v>
    <v>       0.66667000       0.33333000       0.57793449 </v>
   </varray>
  </structure>
  <varray name="primitive_index" >
   <v type="int" >        1 </v>
   <v type="int" >        2 </v>
   <v type="int" >        3 </v>
  </varray>
 </primitive_cell>
 <kpoints>
  <generation param="Monkhorst-Pack">
   <v type="int" name="divisions">      21       21        1 </v>
   <v name="usershift">      0.00000000       0.00000000       0.00000000 </v>
   <v name="genvec1">      0.04761905      -0.00000000       0.00000000 </v>
   <v name="genvec2">      0.00000000       0.04761905       0.00000000 </v>
   <v name="genvec3">      0.00000000       0.00000000       1.00000000 </v>
   <v name="shift">      0.00000000       0.00000000       0.00000000 </v>
  </generation>
  <varray name="kpointlist" >
   <v>       0.00000000       0.00000000       0.00000000 </v>
   <v>       0.04761905       0.00000000       0.00000000 </v>
   <v>      -0.04761905       0.04761905       0.00000000 </v>
   <v>       0.09523810       0.00000000       0.00000000 </v>
   <v>      -0.09523810       0.09523810       0.00000000 </v>
   <v>       0.14285714       0.00000000       0.00000000 </v>
   <v>      -0.14285714       0.14285714       0.00000000 </v>
   <v>       0.19047619       0.00000000       0.00000000 </v>
   <v>      -0.19047619       0.19047619       0.00000000 </v>
   <v>       0.23809524       0.00000000       0.00000000 </v>
   <v>      -0.23809524       0.23809524       0.00000000 </v>
   <v>       0.28571429       0.00000000       0.00000000 </v>
   <v>      -0.28571429       0.28571429       0.00000000 </v>
   <v>       0.33333333       0.00000000       0.00000000 </v>
   <v>      -0.33333333       0.33333333       0.00000000 </v>
   <v>       0.38095238       0.00000000       0.00000000 </v>
   <v>      -0.38095238       0.38095238       0.00000000 </v>
   <v>       0.42857143       0.00000000       0.00000000 </v>
   <v>      -0.42857143       0.42857143       0.00000000 </v>
   <v>       0.47619048       0.00000000       0.00000000 </v>
   <v>      -0.47619048       0.47619048       0.00000000 </v>
   <v>       0.04761905       0.04761905       0.00000000 </v>
   <v>      -0.04761905       0.09523810       0.00000000 </v>
   <v>       0.09523810       0.04761905       0.00000000 </v>
   <v>      -0.04761905       0.14285714       0.00000000 </v>
   <v>      -0.14285714       0.09523810       0.00000000 </v>
   <v>       0.14285714       0.04761905       0.00000000 </v>
   <v>      -0.04761905       0.19047619       0.00000000 </v>
   <v>      -0.19047619       0.14285714       0.00000000 </v>
   <v>       0.19047619       0.04761905       0.00000000 </v>
   <v>      -0.04761905       0.23809524       0.00000000 </v>
   <v>      -0.23809524       0.19047619       0.00000000 </v>
   <v>       0.23809524       0.04761905       0.00000000 </v>
   <v>      -0.04761905       0.28571429       0.00000000 </v>
   <v>      -0.28571429       0.23809524       0.00000000 </v>
   <v>       0.28571429       0.04761905       0.00000000 </v>
   <v>      -0.04761905       0.33333333       0.00000000 </v>
   <v>      -0.33333333       0.28571429       0.00000000 </v>
   <v>       0.33333333       0.04761905       0.00000000 </v>
   <v>      -0.04761905       0.38095238       0.00000000 </v>
   <v>      -0.38095238       0.33333333       0.00000000 </v>
   <v>       0.38095238       0.04761905       0.00000000 </v>
   <v>      -0.04761905       0.42857143       0.00000000 </v>
   <v>      -0.42857143       0.38095238       0.00000000 </v>
   <v>       0.42857143       0.04761905       0.00000000 </v>
   <v>      -0.04761905       0.47619048       0.00000000 </v>
   <v>      -0.47619048       0.42857143       0.00000000 </v>
   <v>       0.47619048       0.04761905       0.00000000 </v>
   <v>       0.47619048       0.47619048       0.00000000 </v>
   <v>       0.09523810       0.09523810       0.00000000 </v>
   <v>      -0.09523810       0.19047619       0.00000000 </v>
   <v>       0.14285714       0.09523810       0.00000000 </v>
   <v>      -0.09523810       0.23809524       0.00000000 </v>
   <v>      -0.23809524       0.14285714       0.00000000 </v>
   <v>       0.19047619       0.09523810       0.00000000 </v>
   <v>      -0.09523810       0.28571429       0.00000000 </v>
   <v>      -0.28571429       0.19047619       0.00000000 </v>
   <v>       0.23809524       0.09523810       0.00000000 </v>
   <v>      -0.09523810       0.33333333       0.00000000 </v>
   <v>      -0.33333333       0.23809524       0.00000000 </v>
   <v>       0.28571429       0.09523810       0.00000000 </v>
   <v>      -0.09523810       0.38095238       0.00000000 </v>
   <v>      -0.38095238       0.28571429       0.00000000 </v>
   <v>       0.33333333       0.09523810       0.00000000 </v>
   <v>      -0.09523810       0.42857143       0.00000000 </v>
   <v>      -0.42857143       0.33333333       0.00000000 </v>
   <v>       0.38095238       0.09523810       0.00000000 </v>
   <v>      -0.09523810       0.47619048       0.00000000 </v>
   <v>      -0.47619048       0.38095238       0.00000000 </v>
   <v>       0.42857143       0.09523810       0.00000000 </v>
   <v>      -0.09523810      -0.47619048       0.00000000 </v>
   <v>       0.47619048       0.42857143       0.00000000 </v>
   <v>       0.14285714       0.14285714       0.00000000 </v>
   <v>      -0.14285714       0.28571429       0.00000000 </v>
   <v>       0.19047619       0.14285714       0.00000000 </v>
   <v>      -0.14285714       0.33333333       0.00000000 </v>
   <v>      -0.33333333       0.19047619       0.00000000 </v>
   <v>       0.23809524       0.14285714       0.00000000 </v>
   <v>      -0.14285714       0.38095238       0.00000000 </v>
   <v>      -0.38095238       0.23809524       0.00000000 </v>
   <v>       0.28571429       0.14285714       0.00000000 </v>
   <v>      -0.14285714       0.42857143       0.00000000 </v>
   <v>      -0.42857143       0.28571429       0.00000000 </v>
   <v>       0.33333333       0.14285714       0.00000000 </v>
   <v>      -0.14285714       0.47619048       0.00000000 </v>
   <v>      -0.47619048       0.33333333       0.00000000 </v>
   <v>       0.38095238       0.14285714       0.00000000 </v>
   <v>      -0.14285714      -0.47619048       0.00000000 </v>
   <v>       0.47619048       0.38095238       0.00000000 </v>
   <v>       0.42857143       0.14285714       0.00000000 </v>
   <v>       0.42857143       0.42857143       0.00000000 </v>
   <v>       0.19047619       0.19047619       0.00000000 </v>
   <v>      -0.19047619       0.38095238       0.00000000 </v>
   <v>       0.23809524       0.19047619       0.00000000 </v>
   <v>      -0.19047619       0.42857143       0.00000000 </v>
   <v>      -0.42857143       0.23809524       0.00000000 </v>
   <v>       0.28571429       0.19047619       0.00000000 </v>
   <v>      -0.19047619       0.47619048       0.00000000 </v>
   <v>      -0.47619048       0.28571429       0.00000000 </v>
   <v>       0.33333333       0.19047619       0.00000000 </v>
   <v>      -0.19047619      -0.47619048       0.00000000 </v>
   <v>       0.47619048       0.33333333       0.00000000 </v>
   <v>       0.38095238       0.19047619       0.00000000 </v>
   <v>      -0.19047619      -0.42857143       0.00000000 </v>
   <v>       0.42857143       0.38095238       0.00000000 </v>
   <v>       0.23809524       0.23809524       0.00000000 </v>
   <v>      -0.23809524       0.47619048       0.00000000 </v>
   <v>       0.28571429       0.23809524       0.00000000 </v>
   <v>      -0.23809524      -0.47619048       0.00000000 </v>
   <v>       0.47619048       0.28571429       0.00000000 </v>
   <v>       0.33333333       0.23809524       0.00000000 </v>
   <v>      -0.23809524      -0.42857143       0.00000000 </v>
   <v>       0.42857143       0.33333333       0.00000000 </v>
   <v>       0.38095238       0.23809524       0.00000000 </v>
   <v>       0.38095238       0.38095238       0.00000000 </v>
   <v>       0.28571429       0.28571429       0.00000000 </v>
   <v>      -0.28571429      -0.42857143       0.00000000 </v>
   <v>       0.33333333       0.28571429       0.00000000 </v>
   <v>      -0.28571429      -0.38095238       0.00000000 </v>
   <v>       0.38095238       0.33333333       0.00000000 </v>
   <v>       0.33333333       0.33333333       0.00000000 </v>
  </varray>
  <varray name="weights" >
   <v>       0.00226757 </v>
   <v>       0.00907029 </v>
   <v>       0.00453515 </v>
   <v>       0.00907029 </v>
   <v>       0.00453515 </v>
   <v>       0.00907029 </v>
   <v>       0.00453515 </v>
   <v>       0.00907029 </v>
   <v>       0.00453515 </v>
   <v>       0.00907029 </v>
   <v>       0.00453515 </v>
   <v>       0.00907029 </v>
   <v>       0.00453515 </v>
   <v>       0.00907029 </v>
   <v>       0.00453515 </v>
   <v>       0.00907029 </v>
   <v>       0.00453515 </v>
   <v>       0.00907029 </v>
   <v>       0.00453515 </v>
   <v>       0.00907029 </v>
   <v>       0.00453515 </v>
   <v>       0.00453515 </v>
   <v>       0.00907029 </v>
   <v>       0.00907029 </v>
   <v>       0.00907029 </v>
   <v>       0.00907029 </v>
   <v>       0.00907029 </v>
   <v>       0.00907029 </v>
   <v>       0.00907029 </v>
   <v>       0.00907029 </v>
   <v>       0.00907029 </v>
   <v>       0.00907029 </v>
   <v>       0.00907029 </v>
   <v>       0.00907029 </v>
   <v>       0.00907029 </v>
   <v>       0.00907029 </v>
   <v>       0.00907029 </v>
   <v>       0.00907029 </v>
   <v>       0.00907029 </v>
   <v>       0.00907029 </v>
   <v>       0.00907029 </v>
   <v>       0.00907029 </v>
   <v>       0.00907029 </v>
   <v>       0.00907029 </v>
   <v>       0.00907029 </v>
   <v>       0.00907029 </v>
   <v>       0.00907029 </v>
   <v>       0.00907029 </v>
   <v>       0.00453515 </v>
   <v>       0.00453515 </v>
   <v>       0.00907029 </v>
   <v>       0.00907029 </v>
   <v>       0.00907029 </v>
   <v>       0.00907029 </v>
   <v>       0.00907029 </v>
   <v>       0.00907029 </v>
   <v>       0.00907029 </v>
   <v>       0.00907029 </v>
   <v>       0.00907029 </v>
   <v>       0.00907029 </v>
   <v>       0.00907029 </v>
   <v>       0.00907029 </v>
   <v>       0.00907029 </v>
   <v>       0.00907029 </v>
   <v>       0.00907029 </v>
   <v>       0.00907029 </v>
   <v>       0.00907029 </v>
   <v>       0.00907029 </v>
   <v>       0.00907029 </v>
   <v>       0.00907029 </v>
   <v>       0.00907029 </v>
   <v>       0.00907029 </v>
   <v>       0.00453515 </v>
   <v>       0.00907029 </v>
   <v>       0.00907029 </v>
   <v>       0.00907029 </v>
   <v>       0.00907029 </v>
   <v>       0.00907029 </v>
   <v>       0.00907029 </v>
   <v>       0.00907029 </v>
   <v>       0.00907029 </v>
   <v>       0.00907029 </v>
   <v>       0.00907029 </v>
   <v>       0.00907029 </v>
   <v>       0.00907029 </v>
   <v>       0.00907029 </v>
   <v>       0.00907029 </v>
   <v>       0.00907029 </v>
   <v>       0.00907029 </v>
   <v>       0.00907029 </v>
   <v>       0.00453515 </v>
   <v>       0.00453515 </v>
   <v>       0.00907029 </v>
   <v>       0.00907029 </v>
   <v>       0.00907029 </v>
   <v>       0.00907029 </v>
   <v>       0.00907029 </v>
   <v>       0.00907029 </v>
   <v>       0.00907029 </v>
   <v>       0.00907029 </v>
   <v>       0.00907029 </v>
   <v>       0.00907029 </v>
   <v>       0.00907029 </v>
   <v>       0.00907029 </v>
   <v>       0.00907029 </v>
   <v>       0.00453515 </v>
   <v>       0.00907029 </v>
   <v>       0.00907029 </v>
   <v>       0.00907029 </v>
   <v>       0.00907029 </v>
   <v>       0.00907029 </v>
   <v>       0.00907029 </v>
   <v>       0.00907029 </v>
   <v>       0.00907029 </v>
   <v>       0.00453515 </v>
   <v>       0.00453515 </v>
   <v>       0.00907029 </v>
   <v>       0.00907029 </v>
   <v>       0.00907029 </v>
   <v>       0.00907029 </v>
   <v>       0.00453515 </v>
  </varray>
 </kpoints>
 <parameters>
  <separator name="general" >
   <i type="string" name="SYSTEM">unknown system</i>
   <i type="logical" name="LCOMPAT"> F  </i>
  </separator>
  <separator name="electronic" >
   <i type="string" name="PREC">accura</i>
   <i name="ENMAX">    500.00000000</i>
   <i name="ENAUG">    373.43800000</i>
   <i name="EDIFF">      0.00000001</i>
   <i type="int" name="IALGO">    38</i>
   <i type="int" name="IWAVPR">    10</i>
   <i type="int" name="NBANDS">    32</i>
   <i type="int" name="NBANDSLOW">    -1</i>
   <i type="int" name="NBANDSHIGH">    -1</i>
   <i name="NELECT">     26.00000000</i>
   <i type="int" name="TURBO">     0</i>
   <i type="int" name="IRESTART">     0</i>
   <i type="int" name="NREBOOT">     0</i>
   <i type="int" name="NMIN">     0</i>
   <i name="EREF">      0.00000000</i>
   <separator name="electronic smearing" >
    <i type="int" name="ISMEAR">     0</i>
    <i name="SIGMA">      0.05000000</i>
    <i name="KSPACING">      0.50000000</i>
    <i type="logical" name="KGAMMA"> T  </i>
    <i type="logical" name="KBLOWUP"> T  </i>
   </separator>
   <separator name="electronic projectors" >
    <i type="logical" name="LREAL"> F  </i>
    <v name="ROPT">      0.00000000      0.00000000      0.00000000</v>
    <i type="int" name="LMAXPAW">  -100</i>
    <i type="int" name="LMAXMIX">     2</i>
    <i type="logical" name="NLSPLINE"> F  </i>
   </separator>
   <separator name="electronic startup" >
    <i type="int" name="ISTART">     0</i>
    <i type="int" name="ICHARG">     2</i>
    <i type="int" name="INIWAV">     1</i>
   </separator>
   <separator name="electronic spin" >
    <i type="int" name="ISPIN">     1</i>
    <i type="logical" name="LNONCOLLINEAR"> F  </i>
    <v name="MAGMOM">      1.00000000      1.00000000      1.00000000</v>
    <i name="NUPDOWN">     -1.00000000</i>
    <i type="logical" name="LSORBIT"> F  </i>
    <v name="SAXIS">      0.00000000      0.00000000      1.00000000</v>
    <i type="logical" name="LSPIRAL"> F  </i>
    <v name="QSPIRAL">      0.00000000      0.00000000      0.00000000</v>
    <i type="logical" name="LZEROZ"> F  </i>
   </separator>
   <separator name="electronic exchange-correlation" >
    <i type="logical" name="LASPH"> T  </i>
    <i type="logical" name="LMETAGGA"> F  </i>
   </separator>
   <separator name="electronic convergence" >
    <i type="int" name="NELM">    60</i>
    <i type="int" name="NELMDL">     0</i>
    <i type="int" name="NELMIN">     2</i>
    <i name="ENINI">    500.00000000</i>
    <separator name="electronic convergence detail" >
     <i type="logical" name="LDIAG"> T  </i>
     <i type="logical" name="LSUBROT"> F  </i>
     <i name="WEIMIN">      0.00000000</i>
     <i name="EBREAK">      0.00000000</i>
     <i name="DEPER">      0.30000000</i>
     <i type="int" name="NRMM">     4</i>
     <i name="TIME">      0.40000000</i>
    </separator>
   </separator>
   <separator name="electronic mixer" >
    <i name="AMIX">      0.40000000</i>
    <i name="BMIX">      1.00000000</i>
    <i name="AMIN">      0.10000000</i>
    <i name="AMIX_MAG">      1.60000000</i>
    <i name="BMIX_MAG">      1.00000000</i>
    <separator name="electronic mixer details" >
     <i type="int" name="IMIX">     4</i>
     <i type="logical" name="MIXFIRST"> F  </i>
     <i type="int" name="MAXMIX">   -45</i>
     <i name="WC">    100.00000000</i>
     <i type="int" name="INIMIX">     1</i>
     <i type="int" name="MIXPRE">     1</i>
     <i type="int" name="MREMOVE">     5</i>
    </separator>
   </separator>
   <separator name="electronic dipolcorrection" >
    <i type="logical" name="LDIPOL"> F  </i>
    <i type="logical" name="LMONO"> F  </i>
    <i type="int" name="IDIPOL">     0</i>
    <i name="EPSILON">      1.00000000</i>
    <v name="DIPOL">   -100.00000000   -100.00000000   -100.00000000</v>
    <i name="EFIELD">      0.00000000</i>
   </separator>
  </separator>
  <separator name="grids" >
   <i type="int" name="NGX">    28</i>
   <i type="int" name="NGY">    28</i>
   <i type="int" name="NGZ">   192</i>
   <i type="int" name="NGXF">    56</i>
   <i type="int" name="NGYF">    56</i>
   <i type="int" name="NGZF">   384</i>
   <i type="logical" name="ADDGRID"> T  </i>
  </separator>
  <separator name="ionic" >
   <i type="int" name="NSW">     0</i>
   <i type="int" name="IBRION">    -1</i>
   <i type="int" name="MDALGO">     0</i>
   <i type="int" name="ISIF">     2</i>
   <i name="PSTRESS">      0.00000000</i>
   <i name="EDIFFG">      0.00000010</i>
   <i type="int" name="NFREE">     0</i>
   <i name="POTIM">      0.50000000</i>
   <i name="SMASS">     -3.00000000</i>
   <i name="SCALEE">      1.00000000</i>
  </separator>
  <separator name="ionic md" >
   <i name="TEBEG">      0.00010000</i>
   <i name="TEEND">      0.00010000</i>
   <i type="int" name="NBLOCK">     1</i>
   <i type="int" name="KBLOCK">     1</i>
   <i type="int" name="NPACO">   256</i>
   <i name="APACO">     10.00000000</i>
  </separator>
  <separator name="symmetry" >
   <i type="int" name="ISYM">     2</i>
   <i name="SYMPREC">      0.00001000</i>
  </separator>
  <separator name="dos" >
   <i type="int" name="LORBIT">    11</i>
   <v name="RWIGS">     -1.00000000     -1.00000000     -1.00000000</v>
   <i type="int" name="NEDOS">  2001</i>
   <i name="EMIN">     10.00000000</i>
   <i name="EMAX">    -10.00000000</i>
   <i name="EFERMI">      0.00000000</i>
  </separator>
  <separator name="writing" >
   <i type="int" name="NWRITE">     2</i>
   <i type="logical" name="LWAVE"> T  </i>
   <i type="logical" name="LDOWNSAMPLE"> F  </i>
   <i type="logical" name="LCHARG"> T  </i>
   <i type="logical" name="LPARD"> F  </i>
   <i type="logical" name="LVTOT"> F  </i>
   <i type="logical" name="LVHAR"> T  </i>
   <i type="logical" name="LELF"> F  </i>
   <i type="logical" name="LOPTICS"> F  </i>
   <v name="STM">      0.00000000      0.00000000      0.00000000      0.00000000      0.00000000      0.00000000      0.00000000</v>
  </separator>
  <separator name="performance" >
   <i type="int" name="NPAR">    32</i>
   <i type="int" name="NSIM">     4</i>
   <i type="int" name="NBLK">    -1</i>
   <i type="logical" name="LPLANE"> T  </i>
   <i type="logical" name="LSCALAPACK"> T  </i>
   <i type="logical" name="LSCAAWARE"> F  </i>
   <i type="logical" name="LSCALU"> F  </i>
   <i type="logical" name="LASYNC"> F  </i>
   <i type="logical" name="LORBITALREAL"> F  </i>
  </separator>
  <separator name="miscellaneous" >
   <i type="int" name="IDIOT">     3</i>
   <i type="int" name="PHON_NSTRUCT">    -1</i>
   <i type="logical" name="LMUSIC"> F  </i>
   <v name="POMASS">    183.85000000     32.06600000    127.60000000</v>
   <v name="DARWINR">      0.00000000      0.00000000      0.00000000</v>
   <v name="DARWINV">      1.00000000      1.00000000      1.00000000</v>
   <i type="logical" name="LCORR"> T  </i>
  </separator>
  <i type="logical" name="GGA_COMPAT"> T  </i>
  <i type="logical" name="LBERRY"> F  </i>
  <i type="int" name="ICORELEVEL">     0</i>
  <i type="logical" name="LDAU"> F  </i>
  <i type="int" name="I_CONSTRAINED_M">     0</i>
  <separator name="electronic exchange-correlation" >
   <i type="string" name="GGA">--</i>
   <i type="int" name="VOSKOWN">     0</i>
   <i type="logical" name="LHFCALC"> F  </i>
   <i type="string" name="PRECFOCK"></i>
   <i type="logical" name="LSYMGRAD"> F  </i>
   <i type="logical" name="LHFONE"> F  </i>
   <i type="logical" name="LRHFCALC"> F  </i>
   <i type="logical" name="LTHOMAS"> F  </i>
   <i type="logical" name="LMODELHF"> F  </i>
   <i type="logical" name="LFOCKACE"> F  </i>
   <i name="ENCUT4O">     -1.00000000</i>
   <i type="int" name="EXXOEP">     0</i>
   <i type="int" name="FOURORBIT">     0</i>
   <i name="AEXX">      0.00000000</i>
   <i name="HFALPHA">      0.00000000</i>
   <i name="MCALPHA">      0.00000000</i>
   <i name="ALDAX">      1.00000000</i>
   <i name="AGGAX">      1.00000000</i>
   <i name="ALDAC">      1.00000000</i>
   <i name="AGGAC">      1.00000000</i>
   <i type="int" name="NKREDX">     1</i>
   <i type="int" name="NKREDY">     1</i>
   <i type="int" name="NKREDZ">     1</i>
   <i type="logical" name="SHIFTRED"> F  </i>
   <i type="logical" name="ODDONLY"> F  </i>
   <i type="logical" name="EVENONLY"> F  </i>
   <i type="int" name="LMAXFOCK">     0</i>
   <i type="int" name="NMAXFOCKAE">     0</i>
   <i type="logical" name="LFOCKAEDFT"> F  </i>
   <i name="HFSCREEN">      0.00000000</i>
   <i name="HFSCREENC">      0.00000000</i>
   <i type="int" name="NBANDSGWLOW">     0</i>
  </separator>
  <separator name="vdW DFT" >
   <i type="logical" name="LUSE_VDW"> F  </i>
   <i type="int" name="IVDW_NL">     1</i>
   <i type="logical" name="LSPIN_VDW"> F  </i>
   <i name="Zab_VDW">     -0.84910000</i>
   <i name="PARAM1">      0.12340000</i>
   <i name="PARAM2">      1.00000000</i>
   <i name="PARAM3">      0.00000000</i>
  </separator>
  <separator name="model GW" >
   <i type="int" name="MODEL_GW">     0</i>
   <i name="MODEL_EPS0">     49.06478692</i>
   <i name="MODEL_ALPHA">      1.00000000</i>
  </separator>
  <separator name="linear response parameters" >
   <i type="logical" name="LEPSILON"> F  </i>
   <i type="logical" name="LRPA"> F  </i>
   <i type="logical" name="LNABLA"> F  </i>
   <i type="logical" name="LVEL"> F  </i>
   <i name="CSHIFT">      0.10000000</i>
   <i name="OMEGAMAX">     -1.00000000</i>
   <i name="DEG_THRESHOLD">      0.00200000</i>
   <i name="RTIME">     -0.10000000</i>
   <i name="WPLASMAI">      0.00000000</i>
   <v name="DFIELD">      0.00000000      0.00000000      0.00000000</v>
   <v name="WPLASMA">      0.00000000      0.00000000      0.00000000      0.00000000      0.00000000      0.00000000      0.00000000      0.00000000      0.00000000</v>
  </separator>
  <separator name="orbital magnetization" >
   <i type="logical" name="NUCIND"> F  </i>
   <v name="MAGPOS">      0.00000000      0.00000000      0.00000000</v>
   <i type="logical" name="LNICSALL"> T  </i>
   <i type="logical" name="ORBITALMAG"> F  </i>
   <i type="logical" name="LMAGBLOCH"> F  </i>
   <i type="logical" name="LCHIMAG"> F  </i>
   <i type="logical" name="LGAUGE"> T  </i>
   <i type="int" name="MAGATOM">     0</i>
   <v name="MAGDIPOL">      0.00000000      0.00000000      0.00000000</v>
   <v name="AVECCONST">      0.00000000      0.00000000      0.00000000</v>
  </separator>
  <separator name="response functions" >
   <i type="logical" name="LALL_IN_ONE"> F  </i>
   <i type="int" name="IALL_IN_ONE">    -1</i>
   <i type="int" name="NBANDS_WAVE">    -1</i>
   <i type="logical" name="LFINITE_TEMPERATURE"> F  </i>
   <i type="logical" name="LADDER"> F  </i>
   <i type="logical" name="LRPAFORCE"> F  </i>
   <i type="logical" name="LFXC"> F  </i>
   <i type="logical" name="LHARTREE"> T  </i>
   <i type="int" name="IBSE">     0</i>
   <v type="int" name="KPOINT">    -1     0     0     0</v>
   <i type="logical" name="LTCTC"> F  </i>
   <i type="logical" name="LTCTE"> F  </i>
   <i type="logical" name="LTETE"> F  </i>
   <i type="logical" name="LTRIPLET"> F  </i>
   <i type="logical" name="LFXCEPS"> F  </i>
   <i type="logical" name="LFXHEG"> F  </i>
   <i type="int" name="NATURALO">     2</i>
   <i type="logical" name="LHOLEGF"> F  </i>
   <i type="logical" name="L2ORDER"> F  </i>
   <i type="logical" name="LDMP1"> F  </i>
   <i type="logical" name="LMP2LT"> F  </i>
   <i type="logical" name="LSMP2LT"> F  </i>
   <i type="logical" name="LGWLF"> F  </i>
   <i name="ENCUTGW">     -1.60000002</i>
   <i name="ENCUTGWSOFT">     -1.60000002</i>
   <i name="ENCUTLF">     -1.00000000</i>
   <i type="logical" name="LESF_SPLINES"> F  </i>
   <i type="int" name="LMAXMP2">    -1</i>
   <i name="SCISSOR">      0.00000000</i>
   <i type="int" name="NOMEGA">     0</i>
   <i type="int" name="NOMEGAR">     0</i>
   <i type="int" name="NBANDSGW">    -1</i>
   <i type="int" name="NBANDSO">    -1</i>
   <i type="int" name="NBANDSV">    -1</i>
   <i type="int" name="NELMGW">     1</i>
   <i type="int" name="NELMHF">     1</i>
   <i type="int" name="DIM">     3</i>
   <i type="int" name="IESPILON">     4</i>
   <i type="int" name="ANTIRES">     0</i>
   <i name="OMEGAMAX">    -30.00000000</i>
   <i name="OMEGAMIN">    -30.00000000</i>
   <i name="OMEGATL">   -200.00000000</i>
   <i type="int" name="OMEGAGRID">     0</i>
   <i name="CSHIFT">     -0.10000000</i>
   <i type="logical" name="LSELFENERGY"> F  </i>
   <i type="logical" name="LSPECTRAL"> F  </i>
   <i type="logical" name="LSPECTRALGW"> F  </i>
   <i type="logical" name="LSINGLES"> F  </i>
   <i type="logical" name="LFERMIGW"> F  </i>
   <i type="logical" name="ODDONLYGW"> F  </i>
   <i type="logical" name="EVENONLYGW"> F  </i>
   <i type="int" name="NKREDLFX">     1</i>
   <i type="int" name="NKREDLFY">     1</i>
   <i type="int" name="NKREDLFZ">     1</i>
   <i type="int" name="MAXMEM">  2800</i>
   <i type="int" name="TELESCOPE">     0</i>
   <i type="int" name="NTAUPAR">    -1</i>
   <i type="int" name="NOMEGAPAR">    -1</i>
   <i name="DAMP_NEWTON">      0.80000001</i>
   <i name="LAMBDA">      1.00000000</i>
  </separator>
  <separator name="External order field" >
   <i name="OFIELD_KAPPA">      0.00000000</i>
   <v name="OFIELD_K">      0.00000000      0.00000000      0.00000000</v>
   <i name="OFIELD_Q6_NEAR">      0.00000000</i>
   <i name="OFIELD_Q6_FAR">      0.00000000</i>
   <i name="OFIELD_A">      0.00000000</i>
  </separator>
  <separator name="optional k-points parameters" >
   <i type="int" name="KPOINTS_OPT_MODE">     1</i>
   <i type="logical" name="LKPOINTS_OPT"> F  </i>
  </separator>
 </parameters>
 <atominfo>
  <atoms>       3 </atoms>
  <types>       3 </types>
  <array name="atoms" >
   <dimension dim="1">ion</dimension>
   <field type="string">element</field>
   <field type="int">atomtype</field>
   <set>
    <rc><c>W </c><c>   1</c></rc>
    <rc><c>S </c><c>   2</c></rc>
    <rc><c>Te</c><c>   3</c></rc>
   </set>
  </array>
  <array name="atomtypes" >
   <dimension dim="1">type</dimension>
   <field type="int">atomspertype</field>
   <field type="string">element</field>
   <field>mass</field>
   <field>valence</field>
   <field type="string">pseudopotential</field>
   <set>
    <rc><c>   1</c><c>W </c><c>    183.85000000</c><c>     14.00000000</c><c>  PAW_PBE W_sv 04Sep2015                </c></rc>
    <rc><c>   1</c><c>S </c><c>     32.06600000</c><c>      6.00000000</c><c>  PAW_PBE S 06Sep2000                   </c></rc>
    <rc><c>   1</c><c>Te</c><c>    127.60000000</c><c>      6.00000000</c><c>  PAW_PBE Te 08Apr2002                  </c></rc>
   </set>
  </array>
 </atominfo>
 <structure name="initialpos" >
  <crystal>
   <varray name="basis" >
    <v>       3.36615912       0.00000000       0.00000000 </v>
    <v>      -1.68307956       2.91517930       0.00000000 </v>
    <v>       0.00000000       0.00000000      25.00000000 </v>
   </varray>
   <i name="volume">    245.32393458 </i>
   <varray name="rec_basis" >
    <v>       0.29707449       0.17151604       0.00000000 </v>
    <v>       0.00000000       0.34303207       0.00000000 </v>
    <v>       0.00000000       0.00000000       0.04000000 </v>
   </varray>
  </crystal>
  <varray name="positions" >
   <v>       0.33333000       0.66667000       0.50141563 </v>
   <v>       0.66667000       0.33333000       0.44218988 </v>
   <v>       0.66667000       0.33333000       0.57793449 </v>
  </varray>
 </structure>
 <calculation>
  <scstep>
   <time name="dav">    7.33    7.36</time>
   <time name="total">    7.50    7.53</time>
   <energy>
    <i name="alphaZ">     21.25741596 </i>
    <i name="ewald">   7092.77194033 </i>
    <i name="hartreedc">  -9089.38359313 </i>
    <i name="XCdc">     41.95543878 </i>
    <i name="pawpsdc">   1888.69175140 </i>
    <i name="pawaedc">  -1824.50955640 </i>
    <i name="eentropy">     -0.00203322 </i>
    <i name="bandstr">   -449.60892892 </i>
    <i name="atom">   2365.66840301 </i>
    <i name="e_fr_energy">     46.84083782 </i>
    <i name="e_wo_entrp">     46.84287104 </i>
    <i name="e_0_energy">     46.84185443 </i>
   </energy>
  </scstep>
  <scstep>
   <time name="dav">    7.60    7.64</time>
   <time name="total">    7.60    7.64</time>
   <energy>
    <i name="e_fr_energy">    -21.43772134 </i>
    <i name="e_wo_entrp">    -21.43772134 </i>
    <i name="e_0_energy">    -21.43772134 </i>
   </energy>
  </scstep>
  <scstep>
   <time name="dav">    5.41    5.44</time>
   <time name="total">    5.41    5.44</time>
   <energy>
    <i name="e_fr_energy">    -22.45793722 </i>
    <i name="e_wo_entrp">    -22.45793722 </i>
    <i name="e_0_energy">    -22.45793722 </i>
   </energy>
  </scstep>
  <scstep>
   <time name="dav">    8.40    8.44</time>
   <time name="total">    8.40    8.44</time>
   <energy>
    <i name="e_fr_energy">    -22.46640342 </i>
    <i name="e_wo_entrp">    -22.46640342 </i>
    <i name="e_0_energy">    -22.46640342 </i>
   </energy>
  </scstep>
  <scstep>
   <time name="dav">    6.31    6.34</time>
   <time name="total">    6.73    6.77</time>
   <energy>
    <i name="e_fr_energy">    -22.46641860 </i>
    <i name="e_wo_entrp">    -22.46641860 </i>
    <i name="e_0_energy">    -22.46641860 </i>
   </energy>
  </scstep>
  <scstep>
   <time name="dav">    7.20    7.24</time>
   <time name="total">    7.68    7.71</time>
   <energy>
    <i name="e_fr_energy">    -21.52387112 </i>
    <i name="e_wo_entrp">    -21.52387112 </i>
    <i name="e_0_energy">    -21.52387112 </i>
   </energy>
  </scstep>
  <scstep>
   <time name="dav">    7.94    7.97</time>
   <time name="total">    8.50    8.55</time>
   <energy>
    <i name="e_fr_energy">    -21.43915774 </i>
    <i name="e_wo_entrp">    -21.43915774 </i>
    <i name="e_0_energy">    -21.43915774 </i>
   </energy>
  </scstep>
  <scstep>
   <time name="dav">    7.15    7.18</time>
   <time name="total">    7.78    7.82</time>
   <energy>
    <i name="e_fr_energy">    -21.34356009 </i>
    <i name="e_wo_entrp">    -21.34356009 </i>
    <i name="e_0_energy">    -21.34356009 </i>
   </energy>
  </scstep>
  <scstep>
   <time name="dav">    8.99    9.03</time>
   <time name="total">    9.55    9.59</time>
   <energy>
    <i name="e_fr_energy">    -21.33229237 </i>
    <i name="e_wo_entrp">    -21.33229237 </i>
    <i name="e_0_energy">    -21.33229237 </i>
   </energy>
  </scstep>
  <scstep>
   <time name="dav">    8.12    8.16</time>
   <time name="total">    8.73    8.77</time>
   <energy>
    <i name="e_fr_energy">    -21.33165626 </i>
    <i name="e_wo_entrp">    -21.33165626 </i>
    <i name="e_0_energy">    -21.33165626 </i>
   </energy>
  </scstep>
  <scstep>
   <time name="dav">    8.75    8.79</time>
   <time name="total">    9.38    9.43</time>
   <energy>
    <i name="e_fr_energy">    -21.33136038 </i>
    <i name="e_wo_entrp">    -21.33136038 </i>
    <i name="e_0_energy">    -21.33136038 </i>
   </energy>
  </scstep>
  <scstep>
   <time name="dav">    7.73    7.77</time>
   <time name="total">    8.27    8.31</time>
   <energy>
    <i name="e_fr_energy">    -21.33106366 </i>
    <i name="e_wo_entrp">    -21.33106366 </i>
    <i name="e_0_energy">    -21.33106366 </i>
   </energy>
  </scstep>
  <scstep>
   <time name="dav">    8.04    8.08</time>
   <time name="total">    8.63    8.67</time>
   <energy>
    <i name="e_fr_energy">    -21.33108512 </i>
    <i name="e_wo_entrp">    -21.33108512 </i>
    <i name="e_0_energy">    -21.33108512 </i>
   </energy>
  </scstep>
  <scstep>
   <time name="dav">    6.72    6.75</time>
   <time name="total">    7.34    7.37</time>
   <energy>
    <i name="e_fr_energy">    -21.33120601 </i>
    <i name="e_wo_entrp">    -21.33120601 </i>
    <i name="e_0_energy">    -21.33120601 </i>
   </energy>
  </scstep>
  <scstep>
   <time name="dav">    6.34    6.37</time>
   <time name="total">    6.89    6.92</time>
   <energy>
    <i name="e_fr_energy">    -21.33128127 </i>
    <i name="e_wo_entrp">    -21.33128127 </i>
    <i name="e_0_energy">    -21.33128127 </i>
   </energy>
  </scstep>
  <scstep>
   <time name="dav">    6.04    6.06</time>
   <time name="total">    6.65    6.68</time>
   <energy>
    <i name="e_fr_energy">    -21.33138206 </i>
    <i name="e_wo_entrp">    -21.33138206 </i>
    <i name="e_0_energy">    -21.33138206 </i>
   </energy>
  </scstep>
  <scstep>
   <time name="dav">    6.71    6.74</time>
   <time name="total">    7.33    7.37</time>
   <energy>
    <i name="e_fr_energy">    -21.33143771 </i>
    <i name="e_wo_entrp">    -21.33143771 </i>
    <i name="e_0_energy">    -21.33143771 </i>
   </energy>
  </scstep>
  <scstep>
   <time name="dav">    7.00    7.03</time>
   <time name="total">    7.60    7.64</time>
   <energy>
    <i name="e_fr_energy">    -21.33146449 </i>
    <i name="e_wo_entrp">    -21.33146449 </i>
    <i name="e_0_energy">    -21.33146449 </i>
   </energy>
  </scstep>
  <scstep>
   <time name="dav">    7.03    7.06</time>
   <time name="total">    7.67    7.71</time>
   <energy>
    <i name="e_fr_energy">    -21.33147804 </i>
    <i name="e_wo_entrp">    -21.33147804 </i>
    <i name="e_0_energy">    -21.33147804 </i>
   </energy>
  </scstep>
  <scstep>
   <time name="dav">    6.74    6.77</time>
   <time name="total">    7.33    7.37</time>
   <energy>
    <i name="e_fr_energy">    -21.33148362 </i>
    <i name="e_wo_entrp">    -21.33148362 </i>
    <i name="e_0_energy">    -21.33148362 </i>
   </energy>
  </scstep>
  <scstep>
   <time name="dav">    7.03    7.06</time>
   <time name="total">    7.63    7.66</time>
   <energy>
    <i name="e_fr_energy">    -21.33148541 </i>
    <i name="e_wo_entrp">    -21.33148541 </i>
    <i name="e_0_energy">    -21.33148541 </i>
   </energy>
  </scstep>
  <scstep>
   <time name="dav">    6.49    6.52</time>
   <time name="total">    7.10    7.14</time>
   <energy>
    <i name="e_fr_energy">    -21.33148601 </i>
    <i name="e_wo_entrp">    -21.33148601 </i>
    <i name="e_0_energy">    -21.33148601 </i>
   </energy>
  </scstep>
  <scstep>
   <time name="dav">    5.71    5.73</time>
   <time name="total">    6.27    6.30</time>
   <energy>
    <i name="e_fr_energy">    -21.33148616 </i>
    <i name="e_wo_entrp">    -21.33148616 </i>
    <i name="e_0_energy">    -21.33148616 </i>
   </energy>
  </scstep>
  <scstep>
   <time name="dav">    6.28    6.31</time>
   <time name="total">    6.89    6.92</time>
   <energy>
    <i name="e_fr_energy">    -21.33148622 </i>
    <i name="e_wo_entrp">    -21.33148622 </i>
    <i name="e_0_energy">    -21.33148622 </i>
   </energy>
  </scstep>
  <scstep>
   <time name="dav">    6.49    6.52</time>
   <time name="total">    7.10    7.13</time>
   <energy>
    <i name="e_fr_energy">    -21.33148623 </i>
    <i name="e_wo_entrp">    -21.33148623 </i>
    <i name="e_0_energy">    -21.33148623 </i>
   </energy>
  </scstep>
  <scstep>
   <time name="dav">    6.14    6.17</time>
   <time name="total">    6.73    6.76</time>
   <energy>
    <i name="e_fr_energy">    -21.33148624 </i>
    <i name="e_wo_entrp">    -21.33148624 </i>
    <i name="e_0_energy">    -21.33148624 </i>
   </energy>
  </scstep>
  <scstep>
   <time name="dav">    6.28    6.31</time>
   <time name="total">    6.44    6.47</time>
   <energy>
    <i name="alphaZ">     21.25741596 </i>
    <i name="ewald">   7092.77194033 </i>
    <i name="hartreedc">  -9087.17401906 </i>
    <i name="XCdc">     41.44560929 </i>
    <i name="pawpsdc">   3399.55114760 </i>
    <i name="pawaedc">  -3340.20301730 </i>
    <i name="eentropy">     -0.00000000 </i>
    <i name="bandstr">   -514.64896609 </i>
    <i name="atom">   2365.66840301 </i>
    <i name="e_fr_energy">    -21.33148625 </i>
    <i name="e_wo_entrp">    -21.33148625 </i>
    <i name="e_0_energy">    -21.33148625 </i>
   </energy>
  </scstep>
  <structure>
   <crystal>
    <varray name="basis" >
     <v>       3.36615912       0.00000000       0.00000000 </v>
     <v>      -1.68307956       2.91517930       0.00000000 </v>
     <v>       0.00000000       0.00000000      25.00000000 </v>
    </varray>
    <i name="volume">    245.32393458 </i>
    <varray name="rec_basis" >
     <v>       0.29707449       0.17151604       0.00000000 </v>
     <v>       0.00000000       0.34303207       0.00000000 </v>
     <v>       0.00000000       0.00000000       0.04000000 </v>
    </varray>
   </crystal>
   <varray name="positions" >
    <v>       0.33333000       0.66667000       0.50141563 </v>
    <v>       0.66667000       0.33333000       0.44218988 </v>
    <v>       0.66667000       0.33333000       0.57793449 </v>
   </varray>
  </structure>
  <varray name="forces" >
   <v>       0.00055785      -0.00032207       0.00026555 </v>
   <v>      -0.00031808       0.00018364      -0.00047219 </v>
   <v>      -0.00023977       0.00013843       0.00020663 </v>
  </varray>
  <varray name="stress" >
   <v>      -0.00401821       0.00148473       0.00008017 </v>
   <v>       0.00148473      -0.00230379      -0.00004628 </v>
   <v>       0.00008011      -0.00004625      -0.16006476 </v>
  </varray>
  <energy>
   <i name="e_fr_energy">    -21.33148625 </i>
   <i name="e_wo_entrp">    -21.33148625 </i>
   <i name="e_0_energy">    -21.33148625 </i>
  </energy>
  <time name="totalsc">  213.09  214.10</time>
  <eigenvalues>
   <array>
    <dimension dim="1">band</dimension>
    <dimension dim="2">kpoint</dimension>
    <dimension dim="3">spin</dimension>
    <field>eigene</field>
    <field>occ</field>
    <set>
     <set comment="spin 1">
      <set comment="kpoint 1">
       <r>  -75.8434    1.0000 </r>
       <r>  -40.0707    1.0000 </r>
       <r>  -39.9674    1.0000 </r>
       <r>  -39.9674    1.0000 </r>
       <r>  -15.7975    1.0000 </r>
       <r>  -14.4364    1.0000 </r>
       <r>   -7.7574    1.0000 </r>
       <r>   -4.6223    1.0000 </r>
       <r>   -4.6223    1.0000 </r>
       <r>   -4.3827    1.0000 </r>
       <r>   -2.6499    1.0000 </r>
       <r>   -2.6497    1.0000 </r>
       <r>   -1.6812    1.0000 </r>
       <r>    0.9301    0.0000 </r>
       <r>    0.9303    0.0000 </r>
       <r>    1.9114    0.0000 </r>
       <r>    1.9114    0.0000 </r>
       <r>    2.0061    0.0000 </r>
       <r>    3.1381    0.0000 </r>
       <r>    3.3602    0.0000 </r>
       <r>    3.7492    0.0000 </r>
       <r>    4.1150    0.0000 </r>
       <r>    4.8448    0.0000 </r>
       <r>    5.7759    0.0000 </r>
       <r>    6.4247    0.0000 </r>
       <r>    6.9668    0.0000 </r>
       <r>    7.8584    0.0000 </r>
       <r>    7.8585    0.0000 </r>
       <r>    8.0104    0.0000 </r>
       <r>    8.5767    0.0000 </r>
       <r>    9.7351    0.0000 </r>
       <r>   10.0722    0.0000 </r>
      </set>
      <set comment="kpoint 2">
       <r>  -75.8432    1.0000 </r>
       <r>  -40.0700    1.0000 </r>
       <r>  -39.9714    1.0000 </r>
       <r>  -39.9683    1.0000 </r>
       <r>  -15.7652    1.0000 </r>
       <r>  -14.4149    1.0000 </r>
       <r>   -7.7180    1.0000 </r>
       <r>   -4.7679    1.0000 </r>
       <r>   -4.6077    1.0000 </r>
       <r>   -4.3101    1.0000 </r>
       <r>   -2.7173    1.0000 </r>
       <r>   -2.6846    1.0000 </r>
       <r>   -1.6934    1.0000 </r>
       <r>    0.8844    0.0000 </r>
       <r>    0.9604    0.0000 </r>
       <r>    1.6496    0.0000 </r>
       <r>    1.8693    0.0000 </r>
       <r>    2.1124    0.0000 </r>
       <r>    3.2340    0.0000 </r>
       <r>    3.4018    0.0000 </r>
       <r>    3.8287    0.0000 </r>
       <r>    4.1604    0.0000 </r>
       <r>    4.8943    0.0000 </r>
       <r>    5.8150    0.0000 </r>
       <r>    6.4897    0.0000 </r>
       <r>    7.1072    0.0000 </r>
       <r>    7.5605    0.0000 </r>
       <r>    7.9843    0.0000 </r>
       <r>    8.0953    0.0000 </r>
       <r>    8.8178    0.0000 </r>
       <r>    9.3875    0.0000 </r>
       <r>    9.9299    0.0000 </r>
      </set>
      <set comment="kpoint 3">
       <r>  -75.8432    1.0000 </r>
       <r>  -40.0700    1.0000 </r>
       <r>  -39.9714    1.0000 </r>
       <r>  -39.9683    1.0000 </r>
       <r>  -15.7652    1.0000 </r>
       <r>  -14.4149    1.0000 </r>
       <r>   -7.7180    1.0000 </r>
       <r>   -4.7679    1.0000 </r>
       <r>   -4.6077    1.0000 </r>
       <r>   -4.3101    1.0000 </r>
       <r>   -2.7171    1.0000 </r>
       <r>   -2.6848    1.0000 </r>
       <r>   -1.6934    1.0000 </r>
       <r>    0.8843    0.0000 </r>
       <r>    0.9605    0.0000 </r>
       <r>    1.6496    0.0000 </r>
       <r>    1.8694    0.0000 </r>
       <r>    2.1125    0.0000 </r>
       <r>    3.2340    0.0000 </r>
       <r>    3.4018    0.0000 </r>
       <r>    3.8287    0.0000 </r>
       <r>    4.1604    0.0000 </r>
       <r>    4.8943    0.0000 </r>
       <r>    5.8150    0.0000 </r>
       <r>    6.4897    0.0000 </r>
       <r>    7.1072    0.0000 </r>
       <r>    7.5604    0.0000 </r>
       <r>    7.9844    0.0000 </r>
       <r>    8.0953    0.0000 </r>
       <r>    8.8178    0.0000 </r>
       <r>    9.3876    0.0000 </r>
       <r>    9.9299    0.0000 </r>
      </set>
      <set comment="kpoint 4">
       <r>  -75.8427    1.0000 </r>
       <r>  -40.0678    1.0000 </r>
       <r>  -39.9832    1.0000 </r>
       <r>  -39.9711    1.0000 </r>
       <r>  -15.6700    1.0000 </r>
       <r>  -14.3505    1.0000 </r>
       <r>   -7.6023    1.0000 </r>
       <r>   -5.0438    1.0000 </r>
       <r>   -4.5705    1.0000 </r>
       <r>   -4.2529    1.0000 </r>
       <r>   -2.9046    1.0000 </r>
       <r>   -2.7721    1.0000 </r>
       <r>   -1.7493    1.0000 </r>
       <r>    0.7866    0.0000 </r>
       <r>    1.0116    0.0000 </r>
       <r>    1.1677    0.0000 </r>
       <r>    1.7876    0.0000 </r>
       <r>    2.2657    0.0000 </r>
       <r>    3.4487    0.0000 </r>
       <r>    3.5265    0.0000 </r>
       <r>    4.0644    0.0000 </r>
       <r>    4.3046    0.0000 </r>
       <r>    5.0482    0.0000 </r>
       <r>    5.9264    0.0000 </r>
       <r>    6.5255    0.0000 </r>
       <r>    7.0993    0.0000 </r>
       <r>    7.6488    0.0000 </r>
       <r>    8.2329    0.0000 </r>
       <r>    8.3368    0.0000 </r>
       <r>    8.7507    0.0000 </r>
       <r>    9.1340    0.0000 </r>
       <r>   10.0420    0.0000 </r>
      </set>
      <set comment="kpoint 5">
       <r>  -75.8427    1.0000 </r>
       <r>  -40.0678    1.0000 </r>
       <r>  -39.9832    1.0000 </r>
       <r>  -39.9711    1.0000 </r>
       <r>  -15.6700    1.0000 </r>
       <r>  -14.3505    1.0000 </r>
       <r>   -7.6023    1.0000 </r>
       <r>   -5.0437    1.0000 </r>
       <r>   -4.5705    1.0000 </r>
       <r>   -4.2529    1.0000 </r>
       <r>   -2.9045    1.0000 </r>
       <r>   -2.7722    1.0000 </r>
       <r>   -1.7493    1.0000 </r>
       <r>    0.7865    0.0000 </r>
       <r>    1.0116    0.0000 </r>
       <r>    1.1677    0.0000 </r>
       <r>    1.7876    0.0000 </r>
       <r>    2.2657    0.0000 </r>
       <r>    3.4487    0.0000 </r>
       <r>    3.5265    0.0000 </r>
       <r>    4.0644    0.0000 </r>
       <r>    4.3046    0.0000 </r>
       <r>    5.0482    0.0000 </r>
       <r>    5.9264    0.0000 </r>
       <r>    6.5255    0.0000 </r>
       <r>    7.0993    0.0000 </r>
       <r>    7.6487    0.0000 </r>
       <r>    8.2329    0.0000 </r>
       <r>    8.3369    0.0000 </r>
       <r>    8.7508    0.0000 </r>
       <r>    9.1340    0.0000 </r>
       <r>   10.0420    0.0000 </r>
      </set>
      <set comment="kpoint 6">
       <r>  -75.8420    1.0000 </r>
       <r>  -40.0645    1.0000 </r>
       <r>  -40.0016    1.0000 </r>
       <r>  -39.9755    1.0000 </r>
       <r>  -15.5182    1.0000 </r>
       <r>  -14.2428    1.0000 </r>
       <r>   -7.4185    1.0000 </r>
       <r>   -5.3705    1.0000 </r>
       <r>   -4.5304    1.0000 </r>
       <r>   -4.2968    1.0000 </r>
       <r>   -3.1710    1.0000 </r>
       <r>   -2.8688    1.0000 </r>
       <r>   -1.8841    1.0000 </r>
       <r>    0.5118    0.0000 </r>
       <r>    0.8869    0.0000 </r>
       <r>    0.9797    0.0000 </r>
       <r>    1.7801    0.0000 </r>
       <r>    2.4744    0.0000 </r>
       <r>    3.6955    0.0000 </r>
       <r>    3.7327    0.0000 </r>
       <r>    4.3699    0.0000 </r>
       <r>    4.5772    0.0000 </r>
       <r>    5.3247    0.0000 </r>
       <r>    6.0490    0.0000 </r>
       <r>    6.3678    0.0000 </r>
       <r>    7.1026    0.0000 </r>
       <r>    7.6656    0.0000 </r>
       <r>    8.3973    0.0000 </r>
       <r>    8.6747    0.0000 </r>
       <r>    8.8451    0.0000 </r>
       <r>    9.3610    0.0000 </r>
       <r>   10.0646    0.0000 </r>
      </set>
      <set comment="kpoint 7">
       <r>  -75.8420    1.0000 </r>
       <r>  -40.0645    1.0000 </r>
       <r>  -40.0015    1.0000 </r>
       <r>  -39.9755    1.0000 </r>
       <r>  -15.5182    1.0000 </r>
       <r>  -14.2428    1.0000 </r>
       <r>   -7.4185    1.0000 </r>
       <r>   -5.3705    1.0000 </r>
       <r>   -4.5304    1.0000 </r>
       <r>   -4.2968    1.0000 </r>
       <r>   -3.1710    1.0000 </r>
       <r>   -2.8688    1.0000 </r>
       <r>   -1.8841    1.0000 </r>
       <r>    0.5118    0.0000 </r>
       <r>    0.8868    0.0000 </r>
       <r>    0.9796    0.0000 </r>
       <r>    1.7803    0.0000 </r>
       <r>    2.4744    0.0000 </r>
       <r>    3.6955    0.0000 </r>
       <r>    3.7327    0.0000 </r>
       <r>    4.3699    0.0000 </r>
       <r>    4.5772    0.0000 </r>
       <r>    5.3247    0.0000 </r>
       <r>    6.0490    0.0000 </r>
       <r>    6.3678    0.0000 </r>
       <r>    7.1026    0.0000 </r>
       <r>    7.6656    0.0000 </r>
       <r>    8.3973    0.0000 </r>
       <r>    8.6747    0.0000 </r>
       <r>    8.8451    0.0000 </r>
       <r>    9.3609    0.0000 </r>
       <r>   10.0646    0.0000 </r>
      </set>
      <set comment="kpoint 8">
       <r>  -75.8411    1.0000 </r>
       <r>  -40.0602    1.0000 </r>
       <r>  -40.0248    1.0000 </r>
       <r>  -39.9810    1.0000 </r>
       <r>  -15.3209    1.0000 </r>
       <r>  -14.0911    1.0000 </r>
       <r>   -7.1852    1.0000 </r>
       <r>   -5.7166    1.0000 </r>
       <r>   -4.5164    1.0000 </r>
       <r>   -4.5039    1.0000 </r>
       <r>   -3.4424    1.0000 </r>
       <r>   -2.9247    1.0000 </r>
       <r>   -2.1066    1.0000 </r>
       <r>    0.1124    0.0000 </r>
       <r>    0.8304    0.0000 </r>
       <r>    0.9537    0.0000 </r>
       <r>    1.8906    0.0000 </r>
       <r>    2.7411    0.0000 </r>
       <r>    3.9759    0.0000 </r>
       <r>    4.0040    0.0000 </r>
       <r>    4.6642    0.0000 </r>
       <r>    4.8983    0.0000 </r>
       <r>    5.6855    0.0000 </r>
       <r>    5.9231    0.0000 </r>
       <r>    6.4729    0.0000 </r>
       <r>    6.9827    0.0000 </r>
       <r>    7.3878    0.0000 </r>
       <r>    8.6229    0.0000 </r>
       <r>    9.1117    0.0000 </r>
       <r>    9.3665    0.0000 </r>
       <r>    9.5603    0.0000 </r>
       <r>    9.9424    0.0000 </r>
      </set>
      <set comment="kpoint 9">
       <r>  -75.8411    1.0000 </r>
       <r>  -40.0602    1.0000 </r>
       <r>  -40.0248    1.0000 </r>
       <r>  -39.9811    1.0000 </r>
       <r>  -15.3209    1.0000 </r>
       <r>  -14.0911    1.0000 </r>
       <r>   -7.1852    1.0000 </r>
       <r>   -5.7166    1.0000 </r>
       <r>   -4.5165    1.0000 </r>
       <r>   -4.5039    1.0000 </r>
       <r>   -3.4424    1.0000 </r>
       <r>   -2.9247    1.0000 </r>
       <r>   -2.1065    1.0000 </r>
       <r>    0.1124    0.0000 </r>
       <r>    0.8303    0.0000 </r>
       <r>    0.9536    0.0000 </r>
       <r>    1.8908    0.0000 </r>
       <r>    2.7411    0.0000 </r>
       <r>    3.9759    0.0000 </r>
       <r>    4.0040    0.0000 </r>
       <r>    4.6642    0.0000 </r>
       <r>    4.8983    0.0000 </r>
       <r>    5.6855    0.0000 </r>
       <r>    5.9230    0.0000 </r>
       <r>    6.4728    0.0000 </r>
       <r>    6.9827    0.0000 </r>
       <r>    7.3878    0.0000 </r>
       <r>    8.6229    0.0000 </r>
       <r>    9.1117    0.0000 </r>
       <r>    9.3666    0.0000 </r>
       <r>    9.5604    0.0000 </r>
       <r>    9.9423    0.0000 </r>
      </set>
      <set comment="kpoint 10">
       <r>  -75.8400    1.0000 </r>
       <r>  -40.0558    1.0000 </r>
       <r>  -40.0506    1.0000 </r>
       <r>  -39.9873    1.0000 </r>
       <r>  -15.0948    1.0000 </r>
       <r>  -13.8937    1.0000 </r>
       <r>   -6.9493    1.0000 </r>
       <r>   -6.0411    1.0000 </r>
       <r>   -4.9111    1.0000 </r>
       <r>   -4.5509    1.0000 </r>
       <r>   -3.6409    1.0000 </r>
       <r>   -2.9080    1.0000 </r>
       <r>   -2.3764    1.0000 </r>
       <r>   -0.1198    0.0000 </r>
       <r>    0.6455    0.0000 </r>
       <r>    1.1308    0.0000 </r>
       <r>    2.0452    0.0000 </r>
       <r>    3.0579    0.0000 </r>
       <r>    4.2709    0.0000 </r>
       <r>    4.3457    0.0000 </r>
       <r>    4.9054    0.0000 </r>
       <r>    5.1229    0.0000 </r>
       <r>    5.7537    0.0000 </r>
       <r>    5.8829    0.0000 </r>
       <r>    6.5549    0.0000 </r>
       <r>    6.8644    0.0000 </r>
       <r>    7.6936    0.0000 </r>
       <r>    8.7960    0.0000 </r>
       <r>    9.2449    0.0000 </r>
       <r>    9.5247    0.0000 </r>
       <r>    9.6183    0.0000 </r>
       <r>    9.8529    0.0000 </r>
      </set>
      <set comment="kpoint 11">
       <r>  -75.8400    1.0000 </r>
       <r>  -40.0558    1.0000 </r>
       <r>  -40.0506    1.0000 </r>
       <r>  -39.9873    1.0000 </r>
       <r>  -15.0949    1.0000 </r>
       <r>  -13.8937    1.0000 </r>
       <r>   -6.9494    1.0000 </r>
       <r>   -6.0411    1.0000 </r>
       <r>   -4.9110    1.0000 </r>
       <r>   -4.5510    1.0000 </r>
       <r>   -3.6409    1.0000 </r>
       <r>   -2.9080    1.0000 </r>
       <r>   -2.3763    1.0000 </r>
       <r>   -0.1198    0.0000 </r>
       <r>    0.6454    0.0000 </r>
       <r>    1.1307    0.0000 </r>
       <r>    2.0453    0.0000 </r>
       <r>    3.0579    0.0000 </r>
       <r>    4.2709    0.0000 </r>
       <r>    4.3457    0.0000 </r>
       <r>    4.9054    0.0000 </r>
       <r>    5.1230    0.0000 </r>
       <r>    5.7537    0.0000 </r>
       <r>    5.8829    0.0000 </r>
       <r>    6.5549    0.0000 </r>
       <r>    6.8644    0.0000 </r>
       <r>    7.6936    0.0000 </r>
       <r>    8.7960    0.0000 </r>
       <r>    9.2449    0.0000 </r>
       <r>    9.5248    0.0000 </r>
       <r>    9.6184    0.0000 </r>
       <r>    9.8528    0.0000 </r>
      </set>
      <set comment="kpoint 12">
       <r>  -75.8389    1.0000 </r>
       <r>  -40.0777    1.0000 </r>
       <r>  -40.0503    1.0000 </r>
       <r>  -39.9937    1.0000 </r>
       <r>  -14.8622    1.0000 </r>
       <r>  -13.6500    1.0000 </r>
       <r>   -6.8648    1.0000 </r>
       <r>   -6.2272    1.0000 </r>
       <r>   -5.4309    1.0000 </r>
       <r>   -4.6303    1.0000 </r>
       <r>   -3.7675    1.0000 </r>
       <r>   -2.8255    1.0000 </r>
       <r>   -2.6185    1.0000 </r>
       <r>   -0.1777    0.0000 </r>
       <r>    0.4910    0.0000 </r>
       <r>    1.3510    0.0000 </r>
       <r>    2.1868    0.0000 </r>
       <r>    3.3953    0.0000 </r>
       <r>    4.4100    0.0000 </r>
       <r>    4.7281    0.0000 </r>
       <r>    4.8887    0.0000 </r>
       <r>    5.2941    0.0000 </r>
       <r>    5.6946    0.0000 </r>
       <r>    5.9438    0.0000 </r>
       <r>    6.8017    0.0000 </r>
       <r>    7.1786    0.0000 </r>
       <r>    7.9572    0.0000 </r>
       <r>    8.7315    0.0000 </r>
       <r>    9.2229    0.0000 </r>
       <r>    9.4654    0.0000 </r>
       <r>    9.6269    0.0000 </r>
       <r>    9.9970    0.0000 </r>
      </set>
      <set comment="kpoint 13">
       <r>  -75.8389    1.0000 </r>
       <r>  -40.0777    1.0000 </r>
       <r>  -40.0503    1.0000 </r>
       <r>  -39.9937    1.0000 </r>
       <r>  -14.8622    1.0000 </r>
       <r>  -13.6500    1.0000 </r>
       <r>   -6.8648    1.0000 </r>
       <r>   -6.2271    1.0000 </r>
       <r>   -5.4309    1.0000 </r>
       <r>   -4.6304    1.0000 </r>
       <r>   -3.7675    1.0000 </r>
       <r>   -2.8255    1.0000 </r>
       <r>   -2.6184    1.0000 </r>
       <r>   -0.1777    0.0000 </r>
       <r>    0.4910    0.0000 </r>
       <r>    1.3510    0.0000 </r>
       <r>    2.1869    0.0000 </r>
       <r>    3.3953    0.0000 </r>
       <r>    4.4101    0.0000 </r>
       <r>    4.7281    0.0000 </r>
       <r>    4.8887    0.0000 </r>
       <r>    5.2941    0.0000 </r>
       <r>    5.6946    0.0000 </r>
       <r>    5.9438    0.0000 </r>
       <r>    6.8017    0.0000 </r>
       <r>    7.1786    0.0000 </r>
       <r>    7.9572    0.0000 </r>
       <r>    8.7315    0.0000 </r>
       <r>    9.2229    0.0000 </r>
       <r>    9.4654    0.0000 </r>
       <r>    9.6269    0.0000 </r>
       <r>    9.9970    0.0000 </r>
      </set>
      <set comment="kpoint 14">
       <r>  -75.8379    1.0000 </r>
       <r>  -40.1023    1.0000 </r>
       <r>  -40.0458    1.0000 </r>
       <r>  -39.9996    1.0000 </r>
       <r>  -14.6473    1.0000 </r>
       <r>  -13.3664    1.0000 </r>
       <r>   -7.1032    1.0000 </r>
       <r>   -6.2415    1.0000 </r>
       <r>   -5.8443    1.0000 </r>
       <r>   -4.7301    1.0000 </r>
       <r>   -3.8476    1.0000 </r>
       <r>   -2.7668    1.0000 </r>
       <r>   -2.7130    1.0000 </r>
       <r>   -0.1116    0.0000 </r>
       <r>    0.3973    0.0000 </r>
       <r>    1.5563    0.0000 </r>
       <r>    2.2931    0.0000 </r>
       <r>    3.5879    0.0000 </r>
       <r>    4.0983    0.0000 </r>
       <r>    4.8832    0.0000 </r>
       <r>    5.2049    0.0000 </r>
       <r>    5.4598    0.0000 </r>
       <r>    6.0448    0.0000 </r>
       <r>    6.2348    0.0000 </r>
       <r>    6.9518    0.0000 </r>
       <r>    7.4537    0.0000 </r>
       <r>    8.0373    0.0000 </r>
       <r>    8.6792    0.0000 </r>
       <r>    9.0786    0.0000 </r>
       <r>    9.3708    0.0000 </r>
       <r>    9.8666    0.0000 </r>
       <r>   10.0816    0.0000 </r>
      </set>
      <set comment="kpoint 15">
       <r>  -75.8379    1.0000 </r>
       <r>  -40.1023    1.0000 </r>
       <r>  -40.0458    1.0000 </r>
       <r>  -39.9997    1.0000 </r>
       <r>  -14.6473    1.0000 </r>
       <r>  -13.3664    1.0000 </r>
       <r>   -7.1032    1.0000 </r>
       <r>   -6.2416    1.0000 </r>
       <r>   -5.8444    1.0000 </r>
       <r>   -4.7302    1.0000 </r>
       <r>   -3.8475    1.0000 </r>
       <r>   -2.7667    1.0000 </r>
       <r>   -2.7130    1.0000 </r>
       <r>   -0.1117    0.0000 </r>
       <r>    0.3973    0.0000 </r>
       <r>    1.5562    0.0000 </r>
       <r>    2.2932    0.0000 </r>
       <r>    3.5880    0.0000 </r>
       <r>    4.0984    0.0000 </r>
       <r>    4.8832    0.0000 </r>
       <r>    5.2049    0.0000 </r>
       <r>    5.4598    0.0000 </r>
       <r>    6.0448    0.0000 </r>
       <r>    6.2347    0.0000 </r>
       <r>    6.9518    0.0000 </r>
       <r>    7.4536    0.0000 </r>
       <r>    8.0373    0.0000 </r>
       <r>    8.6792    0.0000 </r>
       <r>    9.0786    0.0000 </r>
       <r>    9.3708    0.0000 </r>
       <r>    9.8666    0.0000 </r>
       <r>   10.0817    0.0000 </r>
      </set>
      <set comment="kpoint 16">
       <r>  -75.8371    1.0000 </r>
       <r>  -40.1230    1.0000 </r>
       <r>  -40.0419    1.0000 </r>
       <r>  -40.0046    1.0000 </r>
       <r>  -14.4706    1.0000 </r>
       <r>  -13.0663    1.0000 </r>
       <r>   -7.4902    1.0000 </r>
       <r>   -6.4925    1.0000 </r>
       <r>   -5.8546    1.0000 </r>
       <r>   -4.8248    1.0000 </r>
       <r>   -3.8836    1.0000 </r>
       <r>   -2.7970    1.0000 </r>
       <r>   -2.6082    1.0000 </r>
       <r>    0.0291    0.0000 </r>
       <r>    0.3686    0.0000 </r>
       <r>    1.6710    0.0000 </r>
       <r>    2.3607    0.0000 </r>
       <r>    3.1834    0.0000 </r>
       <r>    4.2000    0.0000 </r>
       <r>    4.9506    0.0000 </r>
       <r>    5.6085    0.0000 </r>
       <r>    5.9161    0.0000 </r>
       <r>    6.3299    0.0000 </r>
       <r>    6.5583    0.0000 </r>
       <r>    6.9988    0.0000 </r>
       <r>    7.6834    0.0000 </r>
       <r>    8.3161    0.0000 </r>
       <r>    8.6532    0.0000 </r>
       <r>    8.7162    0.0000 </r>
       <r>    9.2168    0.0000 </r>
       <r>    9.8009    0.0000 </r>
       <r>   10.1034    0.0000 </r>
      </set>
      <set comment="kpoint 17">
       <r>  -75.8371    1.0000 </r>
       <r>  -40.1230    1.0000 </r>
       <r>  -40.0419    1.0000 </r>
       <r>  -40.0046    1.0000 </r>
       <r>  -14.4706    1.0000 </r>
       <r>  -13.0663    1.0000 </r>
       <r>   -7.4902    1.0000 </r>
       <r>   -6.4925    1.0000 </r>
       <r>   -5.8547    1.0000 </r>
       <r>   -4.8249    1.0000 </r>
       <r>   -3.8835    1.0000 </r>
       <r>   -2.7968    1.0000 </r>
       <r>   -2.6082    1.0000 </r>
       <r>    0.0291    0.0000 </r>
       <r>    0.3686    0.0000 </r>
       <r>    1.6709    0.0000 </r>
       <r>    2.3607    0.0000 </r>
       <r>    3.1834    0.0000 </r>
       <r>    4.2000    0.0000 </r>
       <r>    4.9506    0.0000 </r>
       <r>    5.6084    0.0000 </r>
       <r>    5.9161    0.0000 </r>
       <r>    6.3299    0.0000 </r>
       <r>    6.5583    0.0000 </r>
       <r>    6.9988    0.0000 </r>
       <r>    7.6834    0.0000 </r>
       <r>    8.3161    0.0000 </r>
       <r>    8.6532    0.0000 </r>
       <r>    8.7162    0.0000 </r>
       <r>    9.2168    0.0000 </r>
       <r>    9.8009    0.0000 </r>
       <r>   10.1035    0.0000 </r>
      </set>
      <set comment="kpoint 18">
       <r>  -75.8365    1.0000 </r>
       <r>  -40.1378    1.0000 </r>
       <r>  -40.0391    1.0000 </r>
       <r>  -40.0082    1.0000 </r>
       <r>  -14.3460    1.0000 </r>
       <r>  -12.7983    1.0000 </r>
       <r>   -7.8679    1.0000 </r>
       <r>   -6.7274    1.0000 </r>
       <r>   -5.7887    1.0000 </r>
       <r>   -4.8964    1.0000 </r>
       <r>   -3.8847    1.0000 </r>
       <r>   -2.7379    1.0000 </r>
       <r>   -2.5339    1.0000 </r>
       <r>    0.2067    0.0000 </r>
       <r>    0.3837    0.0000 </r>
       <r>    1.5963    0.0000 </r>
       <r>    2.3958    0.0000 </r>
       <r>    2.7911    0.0000 </r>
       <r>    4.4346    0.0000 </r>
       <r>    5.0945    0.0000 </r>
       <r>    5.6633    0.0000 </r>
       <r>    6.2656    0.0000 </r>
       <r>    6.6688    0.0000 </r>
       <r>    6.9925    0.0000 </r>
       <r>    7.3873    0.0000 </r>
       <r>    7.9538    0.0000 </r>
       <r>    8.3092    0.0000 </r>
       <r>    8.3873    0.0000 </r>
       <r>    8.6842    0.0000 </r>
       <r>    8.9467    0.0000 </r>
       <r>    9.2350    0.0000 </r>
       <r>    9.5476    0.0000 </r>
      </set>
      <set comment="kpoint 19">
       <r>  -75.8365    1.0000 </r>
       <r>  -40.1378    1.0000 </r>
       <r>  -40.0391    1.0000 </r>
       <r>  -40.0082    1.0000 </r>
       <r>  -14.3460    1.0000 </r>
       <r>  -12.7983    1.0000 </r>
       <r>   -7.8679    1.0000 </r>
       <r>   -6.7275    1.0000 </r>
       <r>   -5.7888    1.0000 </r>
       <r>   -4.8965    1.0000 </r>
       <r>   -3.8846    1.0000 </r>
       <r>   -2.7378    1.0000 </r>
       <r>   -2.5339    1.0000 </r>
       <r>    0.2066    0.0000 </r>
       <r>    0.3837    0.0000 </r>
       <r>    1.5963    0.0000 </r>
       <r>    2.3958    0.0000 </r>
       <r>    2.7911    0.0000 </r>
       <r>    4.4346    0.0000 </r>
       <r>    5.0944    0.0000 </r>
       <r>    5.6633    0.0000 </r>
       <r>    6.2656    0.0000 </r>
       <r>    6.6688    0.0000 </r>
       <r>    6.9925    0.0000 </r>
       <r>    7.3873    0.0000 </r>
       <r>    7.9538    0.0000 </r>
       <r>    8.3092    0.0000 </r>
       <r>    8.3874    0.0000 </r>
       <r>    8.6842    0.0000 </r>
       <r>    8.9467    0.0000 </r>
       <r>    9.2350    0.0000 </r>
       <r>    9.5476    0.0000 </r>
      </set>
      <set comment="kpoint 20">
       <r>  -75.8362    1.0000 </r>
       <r>  -40.1455    1.0000 </r>
       <r>  -40.0377    1.0000 </r>
       <r>  -40.0101    1.0000 </r>
       <r>  -14.2818    1.0000 </r>
       <r>  -12.6335    1.0000 </r>
       <r>   -8.1029    1.0000 </r>
       <r>   -6.8438    1.0000 </r>
       <r>   -5.7612    1.0000 </r>
       <r>   -4.9345    1.0000 </r>
       <r>   -3.8762    1.0000 </r>
       <r>   -2.6683    1.0000 </r>
       <r>   -2.4970    1.0000 </r>
       <r>    0.3641    0.0000 </r>
       <r>    0.4060    0.0000 </r>
       <r>    1.3976    0.0000 </r>
       <r>    2.4091    0.0000 </r>
       <r>    2.6462    0.0000 </r>
       <r>    4.7054    0.0000 </r>
       <r>    5.1821    0.0000 </r>
       <r>    5.3088    0.0000 </r>
       <r>    6.7708    0.0000 </r>
       <r>    7.1395    0.0000 </r>
       <r>    7.4719    0.0000 </r>
       <r>    7.6530    0.0000 </r>
       <r>    8.0096    0.0000 </r>
       <r>    8.1134    0.0000 </r>
       <r>    8.1186    0.0000 </r>
       <r>    8.4037    0.0000 </r>
       <r>    8.7082    0.0000 </r>
       <r>    9.0533    0.0000 </r>
       <r>    9.2621    0.0000 </r>
      </set>
      <set comment="kpoint 21">
       <r>  -75.8362    1.0000 </r>
       <r>  -40.1455    1.0000 </r>
       <r>  -40.0377    1.0000 </r>
       <r>  -40.0101    1.0000 </r>
       <r>  -14.2818    1.0000 </r>
       <r>  -12.6335    1.0000 </r>
       <r>   -8.1028    1.0000 </r>
       <r>   -6.8438    1.0000 </r>
       <r>   -5.7613    1.0000 </r>
       <r>   -4.9346    1.0000 </r>
       <r>   -3.8761    1.0000 </r>
       <r>   -2.6682    1.0000 </r>
       <r>   -2.4970    1.0000 </r>
       <r>    0.3640    0.0000 </r>
       <r>    0.4060    0.0000 </r>
       <r>    1.3975    0.0000 </r>
       <r>    2.4091    0.0000 </r>
       <r>    2.6461    0.0000 </r>
       <r>    4.7054    0.0000 </r>
       <r>    5.1820    0.0000 </r>
       <r>    5.3088    0.0000 </r>
       <r>    6.7707    0.0000 </r>
       <r>    7.1395    0.0000 </r>
       <r>    7.4719    0.0000 </r>
       <r>    7.6530    0.0000 </r>
       <r>    8.0096    0.0000 </r>
       <r>    8.1135    0.0000 </r>
       <r>    8.1186    0.0000 </r>
       <r>    8.4037    0.0000 </r>
       <r>    8.7082    0.0000 </r>
       <r>    9.0533    0.0000 </r>
       <r>    9.2622    0.0000 </r>
      </set>
      <set comment="kpoint 22">
       <r>  -75.8429    1.0000 </r>
       <r>  -40.0685    1.0000 </r>
       <r>  -39.9792    1.0000 </r>
       <r>  -39.9703    1.0000 </r>
       <r>  -15.7014    1.0000 </r>
       <r>  -14.3720    1.0000 </r>
       <r>   -7.6404    1.0000 </r>
       <r>   -4.9618    1.0000 </r>
       <r>   -4.5858    1.0000 </r>
       <r>   -4.2576    1.0000 </r>
       <r>   -2.8455    1.0000 </r>
       <r>   -2.7458    1.0000 </r>
       <r>   -1.7264    1.0000 </r>
       <r>    0.8201    0.0000 </r>
       <r>    0.9905    0.0000 </r>
       <r>    1.3159    0.0000 </r>
       <r>    1.7927    0.0000 </r>
       <r>    2.2230    0.0000 </r>
       <r>    3.3871    0.0000 </r>
       <r>    3.4850    0.0000 </r>
       <r>    3.9885    0.0000 </r>
       <r>    4.2552    0.0000 </r>
       <r>    4.9963    0.0000 </r>
       <r>    5.8916    0.0000 </r>
       <r>    6.5489    0.0000 </r>
       <r>    7.2429    0.0000 </r>
       <r>    7.4153    0.0000 </r>
       <r>    8.1829    0.0000 </r>
       <r>    8.2345    0.0000 </r>
       <r>    8.9232    0.0000 </r>
       <r>    9.0659    0.0000 </r>
       <r>    9.9662    0.0000 </r>
      </set>
      <set comment="kpoint 23">
       <r>  -75.8429    1.0000 </r>
       <r>  -40.0685    1.0000 </r>
       <r>  -39.9792    1.0000 </r>
       <r>  -39.9703    1.0000 </r>
       <r>  -15.7014    1.0000 </r>
       <r>  -14.3720    1.0000 </r>
       <r>   -7.6404    1.0000 </r>
       <r>   -4.9617    1.0000 </r>
       <r>   -4.5859    1.0000 </r>
       <r>   -4.2576    1.0000 </r>
       <r>   -2.8454    1.0000 </r>
       <r>   -2.7459    1.0000 </r>
       <r>   -1.7263    1.0000 </r>
       <r>    0.8200    0.0000 </r>
       <r>    0.9905    0.0000 </r>
       <r>    1.3159    0.0000 </r>
       <r>    1.7927    0.0000 </r>
       <r>    2.2230    0.0000 </r>
       <r>    3.3871    0.0000 </r>
       <r>    3.4850    0.0000 </r>
       <r>    3.9885    0.0000 </r>
       <r>    4.2552    0.0000 </r>
       <r>    4.9962    0.0000 </r>
       <r>    5.8916    0.0000 </r>
       <r>    6.5489    0.0000 </r>
       <r>    7.2429    0.0000 </r>
       <r>    7.4152    0.0000 </r>
       <r>    8.1829    0.0000 </r>
       <r>    8.2346    0.0000 </r>
       <r>    8.9233    0.0000 </r>
       <r>    9.0659    0.0000 </r>
       <r>    9.9661    0.0000 </r>
      </set>
      <set comment="kpoint 24">
       <r>  -75.8423    1.0000 </r>
       <r>  -40.0658    1.0000 </r>
       <r>  -39.9941    1.0000 </r>
       <r>  -39.9740    1.0000 </r>
       <r>  -15.5779    1.0000 </r>
       <r>  -14.2859    1.0000 </r>
       <r>   -7.4900    1.0000 </r>
       <r>   -5.2468    1.0000 </r>
       <r>   -4.5623    1.0000 </r>
       <r>   -4.2478    1.0000 </r>
       <r>   -3.0802    1.0000 </r>
       <r>   -2.8371    1.0000 </r>
       <r>   -1.8160    1.0000 </r>
       <r>    0.6975    0.0000 </r>
       <r>    0.8290    0.0000 </r>
       <r>    1.0534    0.0000 </r>
       <r>    1.7370    0.0000 </r>
       <r>    2.4034    0.0000 </r>
       <r>    3.6090    0.0000 </r>
       <r>    3.6522    0.0000 </r>
       <r>    4.2653    0.0000 </r>
       <r>    4.4694    0.0000 </r>
       <r>    5.2140    0.0000 </r>
       <r>    6.0322    0.0000 </r>
       <r>    6.5028    0.0000 </r>
       <r>    7.1160    0.0000 </r>
       <r>    7.7260    0.0000 </r>
       <r>    8.3374    0.0000 </r>
       <r>    8.4289    0.0000 </r>
       <r>    8.6249    0.0000 </r>
       <r>    9.2944    0.0000 </r>
       <r>   10.0060    0.0000 </r>
      </set>
      <set comment="kpoint 25">
       <r>  -75.8423    1.0000 </r>
       <r>  -40.0658    1.0000 </r>
       <r>  -39.9941    1.0000 </r>
       <r>  -39.9740    1.0000 </r>
       <r>  -15.5779    1.0000 </r>
       <r>  -14.2859    1.0000 </r>
       <r>   -7.4900    1.0000 </r>
       <r>   -5.2468    1.0000 </r>
       <r>   -4.5623    1.0000 </r>
       <r>   -4.2478    1.0000 </r>
       <r>   -3.0802    1.0000 </r>
       <r>   -2.8372    1.0000 </r>
       <r>   -1.8160    1.0000 </r>
       <r>    0.6975    0.0000 </r>
       <r>    0.8288    0.0000 </r>
       <r>    1.0535    0.0000 </r>
       <r>    1.7371    0.0000 </r>
       <r>    2.4034    0.0000 </r>
       <r>    3.6090    0.0000 </r>
       <r>    3.6522    0.0000 </r>
       <r>    4.2653    0.0000 </r>
       <r>    4.4694    0.0000 </r>
       <r>    5.2140    0.0000 </r>
       <r>    6.0322    0.0000 </r>
       <r>    6.5027    0.0000 </r>
       <r>    7.1160    0.0000 </r>
       <r>    7.7260    0.0000 </r>
       <r>    8.3374    0.0000 </r>
       <r>    8.4289    0.0000 </r>
       <r>    8.6250    0.0000 </r>
       <r>    9.2944    0.0000 </r>
       <r>   10.0060    0.0000 </r>
      </set>
      <set comment="kpoint 26">
       <r>  -75.8423    1.0000 </r>
       <r>  -40.0658    1.0000 </r>
       <r>  -39.9941    1.0000 </r>
       <r>  -39.9740    1.0000 </r>
       <r>  -15.5779    1.0000 </r>
       <r>  -14.2859    1.0000 </r>
       <r>   -7.4900    1.0000 </r>
       <r>   -5.2467    1.0000 </r>
       <r>   -4.5623    1.0000 </r>
       <r>   -4.2478    1.0000 </r>
       <r>   -3.0801    1.0000 </r>
       <r>   -2.8372    1.0000 </r>
       <r>   -1.8160    1.0000 </r>
       <r>    0.6975    0.0000 </r>
       <r>    0.8288    0.0000 </r>
       <r>    1.0534    0.0000 </r>
       <r>    1.7372    0.0000 </r>
       <r>    2.4034    0.0000 </r>
       <r>    3.6090    0.0000 </r>
       <r>    3.6522    0.0000 </r>
       <r>    4.2653    0.0000 </r>
       <r>    4.4694    0.0000 </r>
       <r>    5.2140    0.0000 </r>
       <r>    6.0322    0.0000 </r>
       <r>    6.5027    0.0000 </r>
       <r>    7.1160    0.0000 </r>
       <r>    7.7259    0.0000 </r>
       <r>    8.3374    0.0000 </r>
       <r>    8.4290    0.0000 </r>
       <r>    8.6250    0.0000 </r>
       <r>    9.2944    0.0000 </r>
       <r>   10.0060    0.0000 </r>
      </set>
      <set comment="kpoint 27">
       <r>  -75.8415    1.0000 </r>
       <r>  -40.0620    1.0000 </r>
       <r>  -40.0147    1.0000 </r>
       <r>  -39.9793    1.0000 </r>
       <r>  -15.4031    1.0000 </r>
       <r>  -14.1562    1.0000 </r>
       <r>   -7.2789    1.0000 </r>
       <r>   -5.5742    1.0000 </r>
       <r>   -4.5698    1.0000 </r>
       <r>   -4.3416    1.0000 </r>
       <r>   -3.3552    1.0000 </r>
       <r>   -2.9239    1.0000 </r>
       <r>   -1.9829    1.0000 </r>
       <r>    0.2753    0.0000 </r>
       <r>    0.8193    0.0000 </r>
       <r>    0.9195    0.0000 </r>
       <r>    1.8139    0.0000 </r>
       <r>    2.6460    0.0000 </r>
       <r>    3.8665    0.0000 </r>
       <r>    3.8940    0.0000 </r>
       <r>    4.5526    0.0000 </r>
       <r>    4.7957    0.0000 </r>
       <r>    5.5569    0.0000 </r>
       <r>    6.0978    0.0000 </r>
       <r>    6.4156    0.0000 </r>
       <r>    7.2014    0.0000 </r>
       <r>    7.4121    0.0000 </r>
       <r>    8.4754    0.0000 </r>
       <r>    8.7543    0.0000 </r>
       <r>    8.9420    0.0000 </r>
       <r>    9.4670    0.0000 </r>
       <r>   10.0585    0.0000 </r>
      </set>
      <set comment="kpoint 28">
       <r>  -75.8415    1.0000 </r>
       <r>  -40.0620    1.0000 </r>
       <r>  -40.0147    1.0000 </r>
       <r>  -39.9793    1.0000 </r>
       <r>  -15.4032    1.0000 </r>
       <r>  -14.1562    1.0000 </r>
       <r>   -7.2789    1.0000 </r>
       <r>   -5.5742    1.0000 </r>
       <r>   -4.5698    1.0000 </r>
       <r>   -4.3416    1.0000 </r>
       <r>   -3.3552    1.0000 </r>
       <r>   -2.9239    1.0000 </r>
       <r>   -1.9828    1.0000 </r>
       <r>    0.2752    0.0000 </r>
       <r>    0.8193    0.0000 </r>
       <r>    0.9195    0.0000 </r>
       <r>    1.8139    0.0000 </r>
       <r>    2.6460    0.0000 </r>
       <r>    3.8665    0.0000 </r>
       <r>    3.8940    0.0000 </r>
       <r>    4.5526    0.0000 </r>
       <r>    4.7957    0.0000 </r>
       <r>    5.5569    0.0000 </r>
       <r>    6.0978    0.0000 </r>
       <r>    6.4156    0.0000 </r>
       <r>    7.2014    0.0000 </r>
       <r>    7.4121    0.0000 </r>
       <r>    8.4754    0.0000 </r>
       <r>    8.7543    0.0000 </r>
       <r>    8.9420    0.0000 </r>
       <r>    9.4670    0.0000 </r>
       <r>   10.0585    0.0000 </r>
      </set>
      <set comment="kpoint 29">
       <r>  -75.8415    1.0000 </r>
       <r>  -40.0620    1.0000 </r>
       <r>  -40.0147    1.0000 </r>
       <r>  -39.9793    1.0000 </r>
       <r>  -15.4032    1.0000 </r>
       <r>  -14.1562    1.0000 </r>
       <r>   -7.2789    1.0000 </r>
       <r>   -5.5742    1.0000 </r>
       <r>   -4.5698    1.0000 </r>
       <r>   -4.3416    1.0000 </r>
       <r>   -3.3551    1.0000 </r>
       <r>   -2.9239    1.0000 </r>
       <r>   -1.9828    1.0000 </r>
       <r>    0.2752    0.0000 </r>
       <r>    0.8192    0.0000 </r>
       <r>    0.9194    0.0000 </r>
       <r>    1.8140    0.0000 </r>
       <r>    2.6460    0.0000 </r>
       <r>    3.8665    0.0000 </r>
       <r>    3.8940    0.0000 </r>
       <r>    4.5526    0.0000 </r>
       <r>    4.7957    0.0000 </r>
       <r>    5.5569    0.0000 </r>
       <r>    6.0978    0.0000 </r>
       <r>    6.4156    0.0000 </r>
       <r>    7.2013    0.0000 </r>
       <r>    7.4122    0.0000 </r>
       <r>    8.4755    0.0000 </r>
       <r>    8.7543    0.0000 </r>
       <r>    8.9420    0.0000 </r>
       <r>    9.4670    0.0000 </r>
       <r>   10.0585    0.0000 </r>
      </set>
      <set comment="kpoint 30">
       <r>  -75.8405    1.0000 </r>
       <r>  -40.0575    1.0000 </r>
       <r>  -40.0390    1.0000 </r>
       <r>  -39.9855    1.0000 </r>
       <r>  -15.1911    1.0000 </r>
       <r>  -13.9815    1.0000 </r>
       <r>   -7.0347    1.0000 </r>
       <r>   -5.9088    1.0000 </r>
       <r>   -4.7121    1.0000 </r>
       <r>   -4.5425    1.0000 </r>
       <r>   -3.5576    1.0000 </r>
       <r>   -2.9859    1.0000 </r>
       <r>   -2.2058    1.0000 </r>
       <r>   -0.0471    0.0000 </r>
       <r>    0.6912    0.0000 </r>
       <r>    0.9884    0.0000 </r>
       <r>    1.9649    0.0000 </r>
       <r>    2.9456    0.0000 </r>
       <r>    4.1693    0.0000 </r>
       <r>    4.1964    0.0000 </r>
       <r>    4.8476    0.0000 </r>
       <r>    5.0823    0.0000 </r>
       <r>    5.8176    0.0000 </r>
       <r>    6.0015    0.0000 </r>
       <r>    6.5754    0.0000 </r>
       <r>    6.8473    0.0000 </r>
       <r>    7.5491    0.0000 </r>
       <r>    8.6972    0.0000 </r>
       <r>    8.9626    0.0000 </r>
       <r>    9.3499    0.0000 </r>
       <r>    9.6552    0.0000 </r>
       <r>    9.8534    0.0000 </r>
      </set>
      <set comment="kpoint 31">
       <r>  -75.8405    1.0000 </r>
       <r>  -40.0575    1.0000 </r>
       <r>  -40.0390    1.0000 </r>
       <r>  -39.9855    1.0000 </r>
       <r>  -15.1911    1.0000 </r>
       <r>  -13.9815    1.0000 </r>
       <r>   -7.0347    1.0000 </r>
       <r>   -5.9088    1.0000 </r>
       <r>   -4.7121    1.0000 </r>
       <r>   -4.5425    1.0000 </r>
       <r>   -3.5576    1.0000 </r>
       <r>   -2.9859    1.0000 </r>
       <r>   -2.2058    1.0000 </r>
       <r>   -0.0471    0.0000 </r>
       <r>    0.6913    0.0000 </r>
       <r>    0.9884    0.0000 </r>
       <r>    1.9650    0.0000 </r>
       <r>    2.9455    0.0000 </r>
       <r>    4.1693    0.0000 </r>
       <r>    4.1964    0.0000 </r>
       <r>    4.8476    0.0000 </r>
       <r>    5.0823    0.0000 </r>
       <r>    5.8175    0.0000 </r>
       <r>    6.0015    0.0000 </r>
       <r>    6.5753    0.0000 </r>
       <r>    6.8473    0.0000 </r>
       <r>    7.5491    0.0000 </r>
       <r>    8.6972    0.0000 </r>
       <r>    8.9627    0.0000 </r>
       <r>    9.3499    0.0000 </r>
       <r>    9.6552    0.0000 </r>
       <r>    9.8534    0.0000 </r>
      </set>
      <set comment="kpoint 32">
       <r>  -75.8405    1.0000 </r>
       <r>  -40.0575    1.0000 </r>
       <r>  -40.0390    1.0000 </r>
       <r>  -39.9855    1.0000 </r>
       <r>  -15.1911    1.0000 </r>
       <r>  -13.9815    1.0000 </r>
       <r>   -7.0347    1.0000 </r>
       <r>   -5.9087    1.0000 </r>
       <r>   -4.7121    1.0000 </r>
       <r>   -4.5426    1.0000 </r>
       <r>   -3.5575    1.0000 </r>
       <r>   -2.9859    1.0000 </r>
       <r>   -2.2058    1.0000 </r>
       <r>   -0.0471    0.0000 </r>
       <r>    0.6912    0.0000 </r>
       <r>    0.9883    0.0000 </r>
       <r>    1.9651    0.0000 </r>
       <r>    2.9455    0.0000 </r>
       <r>    4.1693    0.0000 </r>
       <r>    4.1964    0.0000 </r>
       <r>    4.8477    0.0000 </r>
       <r>    5.0823    0.0000 </r>
       <r>    5.8176    0.0000 </r>
       <r>    6.0015    0.0000 </r>
       <r>    6.5753    0.0000 </r>
       <r>    6.8473    0.0000 </r>
       <r>    7.5491    0.0000 </r>
       <r>    8.6972    0.0000 </r>
       <r>    8.9626    0.0000 </r>
       <r>    9.3499    0.0000 </r>
       <r>    9.6552    0.0000 </r>
       <r>    9.8534    0.0000 </r>
      </set>
      <set comment="kpoint 33">
       <r>  -75.8394    1.0000 </r>
       <r>  -40.0653    1.0000 </r>
       <r>  -40.0524    1.0000 </r>
       <r>  -39.9922    1.0000 </r>
       <r>  -14.9613    1.0000 </r>
       <r>  -13.7603    1.0000 </r>
       <r>   -6.8416    1.0000 </r>
       <r>   -6.1820    1.0000 </r>
       <r>   -5.1665    1.0000 </r>
       <r>   -4.6534    1.0000 </r>
       <r>   -3.6684    1.0000 </r>
       <r>   -3.0243    1.0000 </r>
       <r>   -2.4066    1.0000 </r>
       <r>   -0.1934    0.0000 </r>
       <r>    0.5281    0.0000 </r>
       <r>    1.1870    0.0000 </r>
       <r>    2.1134    0.0000 </r>
       <r>    3.2868    0.0000 </r>
       <r>    4.4638    0.0000 </r>
       <r>    4.5704    0.0000 </r>
       <r>    4.9624    0.0000 </r>
       <r>    5.2815    0.0000 </r>
       <r>    5.8041    0.0000 </r>
       <r>    5.8741    0.0000 </r>
       <r>    6.7181    0.0000 </r>
       <r>    7.0456    0.0000 </r>
       <r>    7.8788    0.0000 </r>
       <r>    8.6983    0.0000 </r>
       <r>    9.0652    0.0000 </r>
       <r>    9.3623    0.0000 </r>
       <r>    9.6611    0.0000 </r>
       <r>    9.9013    0.0000 </r>
      </set>
      <set comment="kpoint 34">
       <r>  -75.8394    1.0000 </r>
       <r>  -40.0653    1.0000 </r>
       <r>  -40.0524    1.0000 </r>
       <r>  -39.9922    1.0000 </r>
       <r>  -14.9613    1.0000 </r>
       <r>  -13.7603    1.0000 </r>
       <r>   -6.8416    1.0000 </r>
       <r>   -6.1820    1.0000 </r>
       <r>   -5.1665    1.0000 </r>
       <r>   -4.6534    1.0000 </r>
       <r>   -3.6684    1.0000 </r>
       <r>   -3.0243    1.0000 </r>
       <r>   -2.4066    1.0000 </r>
       <r>   -0.1935    0.0000 </r>
       <r>    0.5281    0.0000 </r>
       <r>    1.1870    0.0000 </r>
       <r>    2.1133    0.0000 </r>
       <r>    3.2868    0.0000 </r>
       <r>    4.4638    0.0000 </r>
       <r>    4.5704    0.0000 </r>
       <r>    4.9624    0.0000 </r>
       <r>    5.2815    0.0000 </r>
       <r>    5.8041    0.0000 </r>
       <r>    5.8741    0.0000 </r>
       <r>    6.7180    0.0000 </r>
       <r>    7.0456    0.0000 </r>
       <r>    7.8788    0.0000 </r>
[...]
       </set>
       <set comment="band 4">
        <r>  0.0000  0.0000  0.9857  0.0000  0.0000  0.0000  0.0000  0.0000  0.0000 </r>
        <r>  0.0000  0.0002  0.0000  0.0002  0.0000  0.0000  0.0000  0.0000  0.0000 </r>
        <r>  0.0000  0.0001  0.0000  0.0001  0.0000  0.0000  0.0000  0.0000  0.0000 </r>
       </set>
       <set comment="band 5">
        <r>  0.0007  0.0084  0.0002  0.0121  0.0114  0.0119  0.0000  0.0177  0.0083 </r>
        <r>  0.6512  0.0000  0.0085  0.0001  0.0000  0.0000  0.0000  0.0000  0.0000 </r>
        <r>  0.0017  0.0000  0.0003  0.0000  0.0000  0.0000  0.0001  0.0000  0.0000 </r>
       </set>
       <set comment="band 6">
        <r>  0.0008  0.0044  0.0003  0.0068  0.0054  0.0139  0.0001  0.0226  0.0043 </r>
        <r>  0.0031  0.0001  0.0003  0.0000  0.0000  0.0000  0.0000  0.0000  0.0000 </r>
        <r>  0.6820  0.0001  0.0069  0.0007  0.0000  0.0000  0.0004  0.0000  0.0001 </r>
       </set>
       <set comment="band 7">
        <r>  0.0799  0.0035  0.0014  0.0013  0.0069  0.0236  0.0439  0.0158  0.0015 </r>
        <r>  0.0004  0.0425  0.0002  0.0283  0.0000  0.0000  0.0000  0.0000  0.0000 </r>
        <r>  0.0018  0.0256  0.0001  0.2228  0.0009  0.0003  0.0001  0.0023  0.0045 </r>
       </set>
       <set comment="band 8">
        <r>  0.0255  0.0022  0.0006  0.0013  0.0009  0.1136  0.0114  0.0902  0.0000 </r>
        <r>  0.0003  0.0440  0.0000  0.1743  0.0000  0.0000  0.0000  0.0000  0.0000 </r>
        <r>  0.0014  0.0780  0.0001  0.0171  0.0020  0.0017  0.0000  0.0004  0.0002 </r>
       </set>
       <set comment="band 9">
        <r>  0.0123  0.0335  0.0001  0.0181  0.0498  0.0008  0.0164  0.0015  0.0064 </r>
        <r>  0.0016  0.1132  0.0135  0.0289  0.0000  0.0000  0.0000  0.0000  0.0000 </r>
        <r>  0.0008  0.1299  0.0083  0.0261  0.0058  0.0008  0.0004  0.0001  0.0008 </r>
       </set>
       <set comment="band 10">
        <r>  0.0056  0.0064  0.0026  0.0304  0.0549  0.0022  0.0021  0.0023  0.0690 </r>
        <r>  0.0256  0.0141  0.1783  0.0171  0.0000  0.0000  0.0000  0.0000  0.0000 </r>
        <r>  0.0315  0.0155  0.1218  0.0026  0.0006  0.0000  0.0021  0.0001  0.0001 </r>
       </set>
       <set comment="band 11">
        <r>  0.0086  0.0005  0.0548  0.0019  0.0062  0.0057  0.0001  0.0180  0.0033 </r>
        <r>  0.0030  0.1437  0.0287  0.1010  0.0000  0.0000  0.0000  0.0000  0.0000 </r>
        <r>  0.0009  0.0760  0.0004  0.0726  0.0025  0.0001  0.0000  0.0001  0.0017 </r>
       </set>
       <set comment="band 12">
        <r>  0.0003  0.0001  0.0033  0.0004  0.0002  0.1034  0.0003  0.1281  0.0001 </r>
        <r>  0.0154  0.0055  0.1722  0.0037  0.0000  0.0000  0.0000  0.0000  0.0000 </r>
        <r>  0.0203  0.0028  0.2091  0.0020  0.0001  0.0000  0.0001  0.0000  0.0001 </r>
       </set>
       <set comment="band 13">
        <r>  0.0025  0.0019  0.0008  0.0047  0.2648  0.0082  0.0277  0.0037  0.2428 </r>
        <r>  0.0000  0.0156  0.0015  0.0209  0.0000  0.0000  0.0000  0.0000  0.0000 </r>
        <r>  0.0002  0.0476  0.0001  0.0245  0.0000  0.0008  0.0000  0.0026  0.0000 </r>
       </set>
       <set comment="band 14">
        <r>  0.0434  0.0003  0.0001  0.0017  0.0148  0.0057  0.6525  0.0019  0.0121 </r>
        <r>  0.0000  0.0057  0.0025  0.0055  0.0000  0.0000  0.0000  0.0000  0.0000 </r>
        <r>  0.0001  0.0043  0.0015  0.0162  0.0008  0.0009  0.0001  0.0003  0.0004 </r>
       </set>
       <set comment="band 15">
        <r>  0.0023  0.0047  0.0004  0.0076  0.0120  0.2498  0.0053  0.1373  0.0862 </r>
        <r>  0.0000  0.0473  0.0013  0.0321  0.0000  0.0000  0.0000  0.0000  0.0000 </r>
        <r>  0.0010  0.0171  0.0014  0.0096  0.0048  0.0198  0.0000  0.0236  0.0037 </r>
       </set>
       <set comment="band 16">
        <r>  0.0074  0.0066  0.0003  0.0098  0.2418  0.0024  0.0014  0.0323  0.3232 </r>
        <r>  0.0020  0.0036  0.0479  0.0053  0.0000  0.0000  0.0000  0.0000  0.0000 </r>
        <r>  0.0057  0.0009  0.0709  0.0000  0.0001  0.0014  0.0067  0.0005  0.0002 </r>
       </set>
       <set comment="band 17">
        <r>  0.0822  0.0017  0.0101  0.0041  0.0188  0.1251  0.0059  0.1619  0.0210 </r>
        <r>  0.0177  0.0051  0.0550  0.0079  0.0000  0.0000  0.0000  0.0000  0.0000 </r>
        <r>  0.0157  0.0063  0.0385  0.0025  0.0001  0.0232  0.0007  0.0288  0.0001 </r>
       </set>
       <set comment="band 18">
        <r>  0.1185  0.0017  0.0098  0.0005  0.0059  0.1118  0.0153  0.1249  0.0045 </r>
        <r>  0.0114  0.0119  0.0249  0.0155  0.0000  0.0000  0.0000  0.0000  0.0000 </r>
        <r>  0.0150  0.0059  0.0596  0.0040  0.0000  0.0171  0.0015  0.0372  0.0001 </r>
       </set>
       <set comment="band 19">
        <r>  0.0082  0.0585  0.0020  0.0472  0.0876  0.0115  0.0005  0.0410  0.0276 </r>
        <r>  0.0011  0.0122  0.0078  0.0025  0.0000  0.0000  0.0000  0.0000  0.0000 </r>
        <r>  0.0001  0.0001  0.0014  0.0003  0.0002  0.0407  0.0006  0.0108  0.0000 </r>
       </set>
       <set comment="band 20">
        <r>  0.0314  0.0014  0.0087  0.0147  0.0012  0.0249  0.0138  0.0025  0.0092 </r>
        <r>  0.0025  0.0021  0.0046  0.0016  0.0000  0.0000  0.0000  0.0000  0.0000 </r>
        <r>  0.0023  0.0019  0.0030  0.0201  0.0036  0.0010  0.0125  0.0103  0.0008 </r>
       </set>
       <set comment="band 21">
        <r>  0.0158  0.0054  0.0156  0.0188  0.0048  0.0022  0.0105  0.0060  0.0189 </r>
        <r>  0.0079  0.0018  0.0040  0.0042  0.0000  0.0000  0.0000  0.0000  0.0000 </r>
        <r>  0.0070  0.0104  0.0027  0.0025  0.0002  0.0092  0.0318  0.0038  0.0005 </r>
       </set>
       <set comment="band 22">
        <r>  0.0118  0.0269  0.0044  0.0009  0.0203  0.0061  0.0039  0.0201  0.0010 </r>
        <r>  0.0048  0.0069  0.0011  0.0056  0.0000  0.0000  0.0000  0.0000  0.0000 </r>
        <r>  0.0033  0.0161  0.0013  0.0013  0.0010  0.0065  0.0151  0.0028  0.0010 </r>
       </set>
       <set comment="band 23">
        <r>  0.0053  0.0050  0.0012  0.0113  0.0030  0.0047  0.0016  0.0065  0.0128 </r>
        <r>  0.0058  0.0179  0.0007  0.0024  0.0000  0.0000  0.0000  0.0000  0.0000 </r>
        <r>  0.0019  0.0005  0.0026  0.0009  0.0044  0.0004  0.0143  0.0090  0.0008 </r>
       </set>
       <set comment="band 24">
        <r>  0.0436  0.0028  0.0045  0.0010  0.0042  0.0020  0.0003  0.0056  0.0002 </r>
        <r>  0.0017  0.0175  0.0019  0.0252  0.0000  0.0000  0.0000  0.0000  0.0000 </r>
        <r>  0.0001  0.0021  0.0110  0.0081  0.0002  0.0020  0.0028  0.0008  0.0008 </r>
       </set>
       <set comment="band 25">
        <r>  0.0084  0.0011  0.0013  0.0018  0.0033  0.0012  0.0014  0.0012  0.0045 </r>
        <r>  0.0003  0.0295  0.0025  0.0012  0.0000  0.0000  0.0000  0.0000  0.0000 </r>
        <r>  0.0004  0.0005  0.0048  0.0001  0.0027  0.0002  0.0042  0.0001  0.0001 </r>
       </set>
       <set comment="band 26">
        <r>  0.0065  0.0035  0.0139  0.0004  0.0141  0.0096  0.0016  0.0013  0.0052 </r>
        <r>  0.0004  0.0607  0.0006  0.0046  0.0000  0.0000  0.0000  0.0000  0.0000 </r>
        <r>  0.0002  0.0038  0.0008  0.0011  0.0056  0.0010  0.0021  0.0074  0.0002 </r>
       </set>
       <set comment="band 27">
        <r>  0.0052  0.0069  0.0012  0.0012  0.0120  0.0011  0.0008  0.0024  0.0003 </r>
        <r>  0.0018  0.0031  0.0028  0.0174  0.0000  0.0000  0.0000  0.0000  0.0000 </r>
        <r>  0.0003  0.0115  0.0035  0.0022  0.0121  0.0033  0.0112  0.0011  0.0051 </r>
       </set>
       <set comment="band 28">
        <r>  0.0004  0.0036  0.0051  0.0008  0.0052  0.0026  0.0003  0.0027  0.0015 </r>
        <r>  0.0008  0.0056  0.0037  0.0055  0.0000  0.0000  0.0000  0.0000  0.0000 </r>
        <r>  0.0005  0.0118  0.0044  0.0016  0.0123  0.0048  0.0115  0.0000  0.0018 </r>
       </set>
       <set comment="band 29">
        <r>  0.0178  0.0013  0.0007  0.0019  0.0017  0.0005  0.0006  0.0010  0.0022 </r>
        <r>  0.0009  0.0025  0.0010  0.0340  0.0000  0.0000  0.0000  0.0000  0.0000 </r>
        <r>  0.0005  0.0131  0.0034  0.0006  0.0132  0.0002  0.0013  0.0030  0.0022 </r>
       </set>
       <set comment="band 30">
        <r>  0.0041  0.0006  0.0169  0.0013  0.0026  0.0018  0.0008  0.0037  0.0012 </r>
        <r>  0.0004  0.0005  0.0005  0.0085  0.0000  0.0000  0.0000  0.0000  0.0000 </r>
        <r>  0.0001  0.0058  0.0002  0.0024  0.0079  0.0098  0.0003  0.0027  0.0024 </r>
       </set>
       <set comment="band 31">
        <r>  0.0036  0.0005  0.0033  0.0022  0.0049  0.0022  0.0018  0.0085  0.0053 </r>
        <r>  0.0001  0.0053  0.0043  0.0067  0.0000  0.0000  0.0000  0.0000  0.0000 </r>
        <r>  0.0013  0.0161  0.0006  0.0029  0.0263  0.0000  0.0052  0.0083  0.0033 </r>
       </set>
       <set comment="band 32">
        <r>  0.0084  0.0025  0.0070  0.0002  0.0049  0.0016  0.0015  0.0015  0.0005 </r>
        <r>  0.0001  0.0035  0.0007  0.0127  0.0000  0.0000  0.0000  0.0000  0.0000 </r>
        <r>  0.0001  0.0151  0.0025  0.0020  0.0124  0.0024  0.0055  0.0045  0.0015 </r>
       </set>
      </set>
      <set comment="kpoint 121">
       <set comment="band 1">
        <r>  0.9978  0.0000  0.0000  0.0000  0.0000  0.0000  0.0000  0.0000  0.0000 </r>
        <r>  0.0000  0.0000  0.0000  0.0000  0.0000  0.0000  0.0000  0.0000  0.0000 </r>
        <r>  0.0000  0.0000  0.0000  0.0000  0.0000  0.0000  0.0000  0.0000  0.0000 </r>
       </set>
       <set comment="band 2">
        <r>  0.0000  0.4914  0.0000  0.4911  0.0000  0.0000  0.0000  0.0000  0.0000 </r>
        <r>  0.0008  0.0000  0.0004  0.0000  0.0000  0.0000  0.0000  0.0000  0.0000 </r>
        <r>  0.0003  0.0000  0.0003  0.0000  0.0000  0.0000  0.0000  0.0000  0.0000 </r>
       </set>
       <set comment="band 3">
        <r>  0.0000  0.4919  0.0000  0.4922  0.0000  0.0000  0.0000  0.0000  0.0000 </r>
        <r>  0.0000  0.0002  0.0000  0.0002  0.0000  0.0000  0.0000  0.0000  0.0000 </r>
        <r>  0.0000  0.0001  0.0000  0.0001  0.0000  0.0000  0.0000  0.0000  0.0000 </r>
       </set>
       <set comment="band 4">
        <r>  0.0000  0.0000  0.9858  0.0000  0.0000  0.0000  0.0000  0.0000  0.0000 </r>
        <r>  0.0000  0.0002  0.0000  0.0002  0.0000  0.0000  0.0000  0.0000  0.0000 </r>
        <r>  0.0000  0.0001  0.0000  0.0001  0.0000  0.0000  0.0000  0.0000  0.0000 </r>
       </set>
       <set comment="band 5">
        <r>  0.0000  0.0103  0.0000  0.0103  0.0100  0.0151  0.0000  0.0151  0.0100 </r>
        <r>  0.6529  0.0000  0.0085  0.0000  0.0000  0.0000  0.0000  0.0000  0.0000 </r>
        <r>  0.0014  0.0000  0.0003  0.0000  0.0000  0.0000  0.0001  0.0000  0.0000 </r>
       </set>
       <set comment="band 6">
        <r>  0.0000  0.0058  0.0000  0.0058  0.0051  0.0184  0.0000  0.0184  0.0051 </r>
        <r>  0.0027  0.0000  0.0003  0.0000  0.0000  0.0000  0.0000  0.0000  0.0000 </r>
        <r>  0.6868  0.0000  0.0070  0.0000  0.0000  0.0000  0.0005  0.0000  0.0000 </r>
       </set>
       <set comment="band 7">
        <r>  0.0001  0.0000  0.0000  0.0000  0.0005  0.1225  0.0001  0.1225  0.0005 </r>
        <r>  0.0000  0.0727  0.0000  0.0689  0.0000  0.0000  0.0000  0.0000  0.0000 </r>
        <r>  0.0000  0.0813  0.0000  0.0867  0.0013  0.0014  0.0000  0.0015  0.0014 </r>
       </set>
       <set comment="band 8">
        <r>  0.1198  0.0000  0.0008  0.0000  0.0000  0.0001  0.0693  0.0001  0.0000 </r>
        <r>  0.0000  0.0574  0.0000  0.0612  0.0000  0.0000  0.0000  0.0000  0.0000 </r>
        <r>  0.0000  0.1048  0.0000  0.0994  0.0037  0.0011  0.0000  0.0010  0.0035 </r>
       </set>
       <set comment="band 9">
        <r>  0.0000  0.0318  0.0000  0.0318  0.0205  0.0039  0.0000  0.0039  0.0205 </r>
        <r>  0.0000  0.0903  0.0000  0.0903  0.0000  0.0000  0.0000  0.0000  0.0000 </r>
        <r>  0.0000  0.0720  0.0000  0.0721  0.0025  0.0003  0.0000  0.0003  0.0025 </r>
       </set>
       <set comment="band 10">
        <r>  0.0000  0.0178  0.0000  0.0178  0.0783  0.0006  0.0000  0.0006  0.0783 </r>
        <r>  0.0297  0.0000  0.2159  0.0000  0.0000  0.0000  0.0000  0.0000  0.0000 </r>
        <r>  0.0328  0.0000  0.1281  0.0000  0.0000  0.0000  0.0024  0.0000  0.0000 </r>
       </set>
       <set comment="band 11">
        <r>  0.0130  0.0000  0.0630  0.0000  0.0000  0.0000  0.0002  0.0000  0.0000 </r>
        <r>  0.0000  0.1376  0.0000  0.1376  0.0000  0.0000  0.0000  0.0000  0.0000 </r>
        <r>  0.0000  0.0790  0.0000  0.0790  0.0023  0.0000  0.0000  0.0000  0.0023 </r>
       </set>
       <set comment="band 12">
        <r>  0.0000  0.0002  0.0000  0.0002  0.0000  0.1238  0.0000  0.1238  0.0000 </r>
        <r>  0.0162  0.0000  0.1792  0.0000  0.0000  0.0000  0.0000  0.0000  0.0000 </r>
        <r>  0.0210  0.0000  0.2109  0.0000  0.0000  0.0000  0.0001  0.0000  0.0000 </r>
       </set>
       <set comment="band 13">
        <r>  0.0000  0.0035  0.0000  0.0035  0.2710  0.0079  0.0000  0.0079  0.2710 </r>
        <r>  0.0000  0.0174  0.0000  0.0174  0.0000  0.0000  0.0000  0.0000  0.0000 </r>
        <r>  0.0000  0.0353  0.0000  0.0353  0.0000  0.0019  0.0000  0.0019  0.0000 </r>
       </set>
       <set comment="band 14">
        <r>  0.0517  0.0000  0.0003  0.0000  0.0000  0.0000  0.6899  0.0000  0.0000 </r>
        <r>  0.0000  0.0044  0.0000  0.0044  0.0000  0.0000  0.0000  0.0000  0.0000 </r>
        <r>  0.0000  0.0094  0.0000  0.0094  0.0005  0.0002  0.0000  0.0002  0.0005 </r>
       </set>
       <set comment="band 15">
        <r>  0.0000  0.0060  0.0000  0.0060  0.0332  0.2047  0.0000  0.2047  0.0332 </r>
        <r>  0.0000  0.0433  0.0000  0.0433  0.0000  0.0000  0.0000  0.0000  0.0000 </r>
        <r>  0.0000  0.0129  0.0000  0.0129  0.0042  0.0224  0.0000  0.0224  0.0042 </r>
       </set>
       <set comment="band 16">
        <r>  0.0000  0.0094  0.0000  0.0094  0.2972  0.0080  0.0000  0.0080  0.2972 </r>
        <r>  0.0019  0.0000  0.0555  0.0000  0.0000  0.0000  0.0000  0.0000  0.0000 </r>
        <r>  0.0071  0.0000  0.0842  0.0000  0.0000  0.0000  0.0076  0.0000  0.0000 </r>
       </set>
       <set comment="band 17">
        <r>  0.2132  0.0000  0.0229  0.0000  0.0000  0.0000  0.0229  0.0000  0.0000 </r>
        <r>  0.0000  0.0222  0.0000  0.0222  0.0000  0.0000  0.0000  0.0000  0.0000 </r>
        <r>  0.0000  0.0088  0.0000  0.0088  0.0000  0.0564  0.0000  0.0564  0.0000 </r>
       </set>
       <set comment="band 18">
        <r>  0.0000  0.0011  0.0000  0.0011  0.0183  0.2642  0.0000  0.2642  0.0183 </r>
        <r>  0.0305  0.0000  0.0854  0.0000  0.0000  0.0000  0.0000  0.0000  0.0000 </r>
        <r>  0.0301  0.0000  0.0917  0.0000  0.0000  0.0000  0.0018  0.0000  0.0000 </r>
       </set>
       <set comment="band 19">
        <r>  0.0000  0.0547  0.0000  0.0547  0.0618  0.0279  0.0000  0.0278  0.0618 </r>
        <r>  0.0000  0.0064  0.0000  0.0064  0.0000  0.0000  0.0000  0.0000  0.0000 </r>
        <r>  0.0000  0.0000  0.0000  0.0000  0.0000  0.0236  0.0000  0.0237  0.0000 </r>
       </set>
       <set comment="band 20">
        <r>  0.0489  0.0000  0.0302  0.0000  0.0000  0.0000  0.0320  0.0000  0.0000 </r>
        <r>  0.0000  0.0008  0.0000  0.0008  0.0000  0.0000  0.0000  0.0000  0.0000 </r>
        <r>  0.0000  0.0157  0.0000  0.0157  0.0007  0.0106  0.0000  0.0106  0.0007 </r>
       </set>
       <set comment="band 21">
        <r>  0.0000  0.0168  0.0000  0.0168  0.0095  0.0249  0.0000  0.0249  0.0095 </r>
        <r>  0.0000  0.0000  0.0000  0.0000  0.0000  0.0000  0.0000  0.0000  0.0000 </r>
        <r>  0.0000  0.0112  0.0000  0.0112  0.0029  0.0056  0.0000  0.0056  0.0029 </r>
       </set>
       <set comment="band 22">
        <r>  0.0000  0.0246  0.0000  0.0246  0.0270  0.0094  0.0000  0.0094  0.0270 </r>
        <r>  0.0157  0.0000  0.0093  0.0000  0.0000  0.0000  0.0000  0.0000  0.0000 </r>
        <r>  0.0143  0.0000  0.0058  0.0000  0.0000  0.0000  0.0797  0.0000  0.0000 </r>
       </set>
       <set comment="band 23">
        <r>  0.0605  0.0000  0.0008  0.0000  0.0000  0.0000  0.0018  0.0000  0.0000 </r>
        <r>  0.0000  0.0405  0.0000  0.0405  0.0000  0.0000  0.0000  0.0000  0.0000 </r>
        <r>  0.0000  0.0039  0.0000  0.0039  0.0003  0.0040  0.0000  0.0040  0.0003 </r>
       </set>
       <set comment="band 24">
        <r>  0.0000  0.0073  0.0000  0.0073  0.0083  0.0002  0.0000  0.0002  0.0083 </r>
        <r>  0.0088  0.0000  0.0021  0.0000  0.0000  0.0000  0.0000  0.0000  0.0000 </r>
        <r>  0.0003  0.0000  0.0259  0.0000  0.0000  0.0000  0.0017  0.0000  0.0000 </r>
       </set>
       <set comment="band 25">
        <r>  0.0000  0.0015  0.0000  0.0015  0.0082  0.0175  0.0000  0.0175  0.0082 </r>
        <r>  0.0000  0.0205  0.0000  0.0205  0.0000  0.0000  0.0000  0.0000  0.0000 </r>
        <r>  0.0000  0.0003  0.0000  0.0003  0.0016  0.0053  0.0000  0.0053  0.0016 </r>
       </set>
       <set comment="band 26">
        <r>  0.0000  0.0050  0.0000  0.0050  0.0162  0.0002  0.0000  0.0002  0.0162 </r>
        <r>  0.0000  0.0401  0.0000  0.0401  0.0000  0.0000  0.0000  0.0000  0.0000 </r>
        <r>  0.0000  0.0020  0.0000  0.0020  0.0075  0.0028  0.0000  0.0028  0.0075 </r>
       </set>
       <set comment="band 27">
        <r>  0.0371  0.0000  0.0193  0.0000  0.0000  0.0000  0.0005  0.0000  0.0000 </r>
        <r>  0.0000  0.0242  0.0000  0.0242  0.0000  0.0000  0.0000  0.0000  0.0000 </r>
        <r>  0.0000  0.0012  0.0000  0.0012  0.0000  0.0049  0.0000  0.0049  0.0000 </r>
       </set>
       <set comment="band 28">
        <r>  0.0000  0.0011  0.0000  0.0011  0.0005  0.0006  0.0000  0.0006  0.0005 </r>
        <r>  0.0000  0.0000  0.0075  0.0000  0.0000  0.0000  0.0000  0.0000  0.0000 </r>
        <r>  0.0011  0.0000  0.0008  0.0000  0.0000  0.0000  0.0159  0.0000  0.0000 </r>
       </set>
       <set comment="band 29">
        <r>  0.0000  0.0001  0.0000  0.0001  0.0000  0.0044  0.0000  0.0044  0.0000 </r>
        <r>  0.0000  0.0026  0.0000  0.0026  0.0000  0.0000  0.0000  0.0000  0.0000 </r>
        <r>  0.0000  0.0100  0.0000  0.0100  0.0125  0.0025  0.0000  0.0025  0.0125 </r>
       </set>
       <set comment="band 30">
        <r>  0.0079  0.0000  0.0136  0.0000  0.0000  0.0000  0.0000  0.0000  0.0000 </r>
        <r>  0.0000  0.0042  0.0000  0.0042  0.0000  0.0000  0.0000  0.0000  0.0000 </r>
        <r>  0.0000  0.0003  0.0000  0.0003  0.0002  0.0057  0.0000  0.0057  0.0002 </r>
       </set>
       <set comment="band 31">
        <r>  0.0000  0.0002  0.0000  0.0002  0.0021  0.0014  0.0000  0.0014  0.0021 </r>
        <r>  0.0000  0.0174  0.0000  0.0174  0.0000  0.0000  0.0000  0.0000  0.0000 </r>
        <r>  0.0000  0.0094  0.0000  0.0094  0.0056  0.0007  0.0000  0.0007  0.0056 </r>
       </set>
       <set comment="band 32">
        <r>  0.0000  0.0048  0.0000  0.0048  0.0027  0.0007  0.0000  0.0007  0.0027 </r>
        <r>  0.0003  0.0000  0.0184  0.0000  0.0000  0.0000  0.0000  0.0000  0.0000 </r>
        <r>  0.0018  0.0000  0.0007  0.0000  0.0000  0.0000  0.0415  0.0000  0.0000 </r>
       </set>
      </set>
     </set>
    </set>
   </array>
  </projected>
 </calculation>
 <structure name="finalpos" >
  <crystal>
   <varray name="basis" >
    <v>       3.36615912       0.00000000       0.00000000 </v>
    <v>      -1.68307956       2.91517930       0.00000000 </v>
    <v>       0.00000000       0.00000000      25.00000000 </v>
   </varray>
   <i name="volume">    245.32393458 </i>
   <varray name="rec_basis" >
    <v>       0.29707449       0.17151604       0.00000000 </v>
    <v>       0.00000000       0.34303207       0.00000000 </v>
    <v>       0.00000000       0.00000000       0.04000000 </v>
   </varray>
  </crystal>
  <varray name="positions" >
   <v>       0.33333000       0.66667000       0.50141563 </v>
   <v>       0.66667000       0.33333000       0.44218988 </v>
   <v>       0.66667000       0.33333000       0.57793449 </v>
  </varray>
 </structure>
</modeling>
