  10  10   1   0
  0.7581049E+02  0.6174031E-09  0.6174031E-09  0.2296472E-08  0.5000000E-15
  1.000000000000000E-004
  CAR 
 unknown system                          
      7.35543068    -28.78723019 2001     -2.40307893      1.00000000
    -28.787  0.0000E+00  0.0000E+00
    -28.769  0.0000E+00  0.0000E+00
    -28.751  0.0000E+00  0.0000E+00
    -28.733  0.0000E+00  0.0000E+00
    -28.715  0.0000E+00  0.0000E+00
    -28.697  0.0000E+00  0.0000E+00
    -28.679  0.0000E+00  0.0000E+00
    -28.661  0.0000E+00  0.0000E+00
    -28.643  0.0000E+00  0.0000E+00
    -28.625  0.0000E+00  0.0000E+00
    -28.607  0.0000E+00  0.0000E+00
    -28.588  0.0000E+00  0.0000E+00
    -28.570  0.0000E+00  0.0000E+00
    -28.552  0.0000E+00  0.0000E+00
    -28.534  0.0000E+00  0.0000E+00
    -28.516  0.0000E+00  0.0000E+00
    -28.498  0.0000E+00  0.0000E+00
    -28.480  0.0000E+00  0.0000E+00
    -28.462  0.0000E+00  0.0000E+00
    -28.444  0.0000E+00  0.0000E+00
    -28.426  0.0000E+00  0.0000E+00
    -28.408  0.0000E+00  0.0000E+00
    -28.390  0.0000E+00  0.0000E+00
    -28.372  0.0000E+00  0.0000E+00
    -28.354  0.0000E+00  0.0000E+00
    -28.335  0.0000E+00  0.0000E+00
    -28.317  0.0000E+00  0.0000E+00
    -28.299  0.0000E+00  0.0000E+00
    -28.281  0.0000E+00  0.0000E+00
    -28.263  0.0000E+00  0.0000E+00
    -28.245  0.0000E+00  0.0000E+00
    -28.227  0.0000E+00  0.0000E+00
    -28.209  0.0000E+00  0.0000E+00
    -28.191  0.0000E+00  0.0000E+00
    -28.173  0.0000E+00  0.0000E+00
    -28.155  0.0000E+00  0.0000E+00
    -28.137  0.0000E+00  0.0000E+00
    -28.119  0.0000E+00  0.0000E+00
    -28.101  0.0000E+00  0.0000E+00
    -28.082  0.0000E+00  0.0000E+00
    -28.064  0.0000E+00  0.0000E+00
    -28.046  0.0000E+00  0.0000E+00
    -28.028  0.0000E+00  0.0000E+00
    -28.010  0.0000E+00  0.0000E+00
    -27.992  0.0000E+00  0.0000E+00
    -27.974  0.0000E+00  0.0000E+00
    -27.956  0.0000E+00  0.0000E+00
    -27.938  0.0000E+00  0.0000E+00
    -27.920  0.0000E+00  0.0000E+00
    -27.902  0.0000E+00  0.0000E+00
    -27.884  0.0000E+00  0.0000E+00
    -27.866  0.0000E+00  0.0000E+00
    -27.848  0.0000E+00  0.0000E+00
    -27.829  0.0000E+00  0.0000E+00
    -27.811  0.0000E+00  0.0000E+00
    -27.793  0.0000E+00  0.0000E+00
    -27.775  0.0000E+00  0.0000E+00
    -27.757  0.0000E+00  0.0000E+00
    -27.739  0.0000E+00  0.0000E+00
    -27.721  0.0000E+00  0.0000E+00
    -27.703  0.0000E+00  0.0000E+00
    -27.685  0.0000E+00  0.0000E+00
    -27.667  0.0000E+00  0.0000E+00
    -27.649  0.0000E+00  0.0000E+00
    -27.631  0.0000E+00  0.0000E+00
    -27.613  0.0000E+00  0.0000E+00
    -27.595  0.0000E+00  0.0000E+00
    -27.576  0.0000E+00  0.0000E+00
    -27.558  0.0000E+00  0.0000E+00
    -27.540  0.0000E+00  0.0000E+00
    -27.522  0.0000E+00  0.0000E+00
    -27.504  0.0000E+00  0.0000E+00
    -27.486  0.0000E+00  0.0000E+00
    -27.468  0.0000E+00  0.0000E+00
    -27.450  0.0000E+00  0.0000E+00
    -27.432  0.2457E-13  0.4441E-15
    -27.414  0.1346E-11  0.2478E-13
    -27.396  0.6197E-10  0.1145E-11
    -27.378  0.2200E-08  0.4090E-10
    -27.360  0.6036E-07  0.1132E-08
    -27.342  0.1280E-05  0.2426E-07
    -27.323  0.2098E-04  0.4034E-06
    -27.305  0.2659E-03  0.5208E-05
    -27.287  0.2606E-02  0.5230E-04
    -27.269  0.1976E-01  0.4094E-03
    -27.251  0.1159E+00  0.2504E-02
    -27.233  0.5264E+00  0.1202E-01
    -27.215  0.1850E+01  0.4545E-01
    -27.197  0.5038E+01  0.1365E+00
    -27.179  0.1065E+02  0.3289E+00
    -27.161  0.1760E+02  0.6469E+00
    -27.143  0.2337E+02  0.1069E+01
    -27.125  0.2734E+02  0.1563E+01
    -27.107  0.3434E+02  0.2184E+01
    -27.089  0.5258E+02  0.3134E+01
    -27.070  0.8421E+02  0.4656E+01
    -27.052  0.1174E+03  0.6777E+01
    -27.034  0.1320E+03  0.9162E+01
    -27.016  0.1180E+03  0.1129E+02
    -26.998  0.8564E+02  0.1284E+02
    -26.980  0.5629E+02  0.1386E+02
    -26.962  0.4356E+02  0.1465E+02
    -26.944  0.4556E+02  0.1547E+02
    -26.926  0.5139E+02  0.1640E+02
    -26.908  0.5231E+02  0.1734E+02
    -26.890  0.4697E+02  0.1819E+02
    -26.872  0.3813E+02  0.1888E+02
    -26.854  0.2806E+02  0.1939E+02
    -26.836  0.1805E+02  0.1972E+02
    -26.817  0.9684E+01  0.1989E+02
    -26.799  0.4182E+01  0.1997E+02
    -26.781  0.1425E+01  0.1999E+02
    -26.763  0.3790E+00  0.2000E+02
    -26.745  0.7832E-01  0.2000E+02
    -26.727  0.1255E-01  0.2000E+02
    -26.709  0.1557E-02  0.2000E+02
    -26.691  0.1494E-03  0.2000E+02
    -26.673  0.1109E-04  0.2000E+02
    -26.655  0.6370E-06  0.2000E+02
    -26.637  0.2827E-07  0.2000E+02
    -26.619  0.9695E-09  0.2000E+02
    -26.601  0.2569E-10  0.2000E+02
    -26.583  0.5367E-12  0.2000E+02
    -26.564  0.0000E+00  0.2000E+02
    -26.546  0.0000E+00  0.2000E+02
    -26.528  0.0000E+00  0.2000E+02
    -26.510  0.0000E+00  0.2000E+02
    -26.492  0.0000E+00  0.2000E+02
    -26.474  0.0000E+00  0.2000E+02
    -26.456  0.0000E+00  0.2000E+02
    -26.438  0.0000E+00  0.2000E+02
    -26.420  0.0000E+00  0.2000E+02
    -26.402  0.0000E+00  0.2000E+02
    -26.384  0.0000E+00  0.2000E+02
    -26.366  0.0000E+00  0.2000E+02
    -26.348  0.0000E+00  0.2000E+02
    -26.330  0.0000E+00  0.2000E+02
    -26.311  0.0000E+00  0.2000E+02
    -26.293  0.0000E+00  0.2000E+02
    -26.275  0.0000E+00  0.2000E+02
    -26.257  0.0000E+00  0.2000E+02
    -26.239  0.0000E+00  0.2000E+02
    -26.221  0.0000E+00  0.2000E+02
    -26.203  0.0000E+00  0.2000E+02
    -26.185  0.0000E+00  0.2000E+02
    -26.167  0.0000E+00  0.2000E+02
    -26.149  0.0000E+00  0.2000E+02
    -26.131  0.0000E+00  0.2000E+02
    -26.113  0.0000E+00  0.2000E+02
    -26.095  0.0000E+00  0.2000E+02
    -26.077  0.0000E+00  0.2000E+02
    -26.058  0.0000E+00  0.2000E+02
    -26.040  0.0000E+00  0.2000E+02
    -26.022  0.0000E+00  0.2000E+02
    -26.004  0.0000E+00  0.2000E+02
    -25.986  0.0000E+00  0.2000E+02
    -25.968  0.0000E+00  0.2000E+02
    -25.950  0.0000E+00  0.2000E+02
    -25.932  0.0000E+00  0.2000E+02
    -25.914  0.0000E+00  0.2000E+02
    -25.896  0.0000E+00  0.2000E+02
    -25.878  0.0000E+00  0.2000E+02
    -25.860  0.0000E+00  0.2000E+02
    -25.842  0.0000E+00  0.2000E+02
    -25.824  0.0000E+00  0.2000E+02
    -25.805  0.0000E+00  0.2000E+02
    -25.787  0.0000E+00  0.2000E+02
    -25.769  0.0000E+00  0.2000E+02
    -25.751  0.0000E+00  0.2000E+02
    -25.733  0.0000E+00  0.2000E+02
    -25.715  0.0000E+00  0.2000E+02
    -25.697  0.0000E+00  0.2000E+02
    -25.679  0.0000E+00  0.2000E+02
    -25.661  0.0000E+00  0.2000E+02
    -25.643  0.0000E+00  0.2000E+02
    -25.625  0.0000E+00  0.2000E+02
    -25.607  0.0000E+00  0.2000E+02
    -25.589  0.0000E+00  0.2000E+02
    -25.571  0.0000E+00  0.2000E+02
    -25.552  0.0000E+00  0.2000E+02
    -25.534  0.0000E+00  0.2000E+02
    -25.516  0.0000E+00  0.2000E+02
    -25.498  0.0000E+00  0.2000E+02
    -25.480  0.0000E+00  0.2000E+02
    -25.462  0.0000E+00  0.2000E+02
    -25.444  0.0000E+00  0.2000E+02
    -25.426  0.0000E+00  0.2000E+02
    -25.408  0.0000E+00  0.2000E+02
    -25.390  0.0000E+00  0.2000E+02
    -25.372  0.0000E+00  0.2000E+02
    -25.354  0.0000E+00  0.2000E+02
    -25.336  0.0000E+00  0.2000E+02
    -25.318  0.0000E+00  0.2000E+02
    -25.299  0.0000E+00  0.2000E+02
    -25.281  0.0000E+00  0.2000E+02
    -25.263  0.0000E+00  0.2000E+02
    -25.245  0.0000E+00  0.2000E+02
    -25.227  0.0000E+00  0.2000E+02
    -25.209  0.0000E+00  0.2000E+02
    -25.191  0.0000E+00  0.2000E+02
    -25.173  0.0000E+00  0.2000E+02
    -25.155  0.0000E+00  0.2000E+02
    -25.137  0.0000E+00  0.2000E+02
    -25.119  0.0000E+00  0.2000E+02
    -25.101  0.0000E+00  0.2000E+02
    -25.083  0.0000E+00  0.2000E+02
    -25.065  0.0000E+00  0.2000E+02
    -25.046  0.0000E+00  0.2000E+02
    -25.028  0.0000E+00  0.2000E+02
    -25.010  0.0000E+00  0.2000E+02
    -24.992  0.0000E+00  0.2000E+02
    -24.974  0.0000E+00  0.2000E+02
    -24.956  0.0000E+00  0.2000E+02
    -24.938  0.0000E+00  0.2000E+02
    -24.920  0.0000E+00  0.2000E+02
    -24.902  0.0000E+00  0.2000E+02
    -24.884  0.0000E+00  0.2000E+02
    -24.866  0.0000E+00  0.2000E+02
    -24.848  0.0000E+00  0.2000E+02
    -24.830  0.0000E+00  0.2000E+02
    -24.812  0.0000E+00  0.2000E+02
    -24.793  0.0000E+00  0.2000E+02
    -24.775  0.0000E+00  0.2000E+02
    -24.757  0.0000E+00  0.2000E+02
    -24.739  0.0000E+00  0.2000E+02
    -24.721  0.0000E+00  0.2000E+02
    -24.703  0.0000E+00  0.2000E+02
    -24.685  0.0000E+00  0.2000E+02
    -24.667  0.0000E+00  0.2000E+02
    -24.649  0.0000E+00  0.2000E+02
    -24.631  0.0000E+00  0.2000E+02
    -24.613  0.0000E+00  0.2000E+02
    -24.595  0.0000E+00  0.2000E+02
    -24.577  0.0000E+00  0.2000E+02
    -24.559  0.0000E+00  0.2000E+02
    -24.540  0.0000E+00  0.2000E+02
    -24.522  0.0000E+00  0.2000E+02
    -24.504  0.0000E+00  0.2000E+02
    -24.486  0.0000E+00  0.2000E+02
    -24.468  0.0000E+00  0.2000E+02
    -24.450  0.0000E+00  0.2000E+02
    -24.432  0.0000E+00  0.2000E+02
    -24.414  0.0000E+00  0.2000E+02
    -24.396  0.0000E+00  0.2000E+02
    -24.378  0.0000E+00  0.2000E+02
    -24.360  0.0000E+00  0.2000E+02
    -24.342  0.0000E+00  0.2000E+02
    -24.324  0.0000E+00  0.2000E+02
    -24.306  0.0000E+00  0.2000E+02
    -24.287  0.0000E+00  0.2000E+02
    -24.269  0.0000E+00  0.2000E+02
    -24.251  0.0000E+00  0.2000E+02
    -24.233  0.0000E+00  0.2000E+02
    -24.215  0.0000E+00  0.2000E+02
    -24.197  0.0000E+00  0.2000E+02
    -24.179  0.0000E+00  0.2000E+02
    -24.161  0.0000E+00  0.2000E+02
    -24.143  0.0000E+00  0.2000E+02
    -24.125  0.0000E+00  0.2000E+02
    -24.107  0.0000E+00  0.2000E+02
    -24.089  0.0000E+00  0.2000E+02
    -24.071  0.0000E+00  0.2000E+02
    -24.053  0.0000E+00  0.2000E+02
    -24.034  0.0000E+00  0.2000E+02
    -24.016  0.0000E+00  0.2000E+02
    -23.998  0.0000E+00  0.2000E+02
    -23.980  0.0000E+00  0.2000E+02
    -23.962  0.0000E+00  0.2000E+02
    -23.944  0.0000E+00  0.2000E+02
    -23.926  0.0000E+00  0.2000E+02
    -23.908  0.0000E+00  0.2000E+02
    -23.890  0.0000E+00  0.2000E+02
    -23.872  0.0000E+00  0.2000E+02
    -23.854  0.0000E+00  0.2000E+02
    -23.836  0.0000E+00  0.2000E+02
    -23.818  0.0000E+00  0.2000E+02
    -23.800  0.0000E+00  0.2000E+02
    -23.781  0.0000E+00  0.2000E+02
    -23.763  0.0000E+00  0.2000E+02
    -23.745  0.0000E+00  0.2000E+02
    -23.727  0.0000E+00  0.2000E+02
    -23.709  0.0000E+00  0.2000E+02
    -23.691  0.0000E+00  0.2000E+02
    -23.673  0.0000E+00  0.2000E+02
    -23.655  0.0000E+00  0.2000E+02
    -23.637  0.0000E+00  0.2000E+02
    -23.619  0.0000E+00  0.2000E+02
    -23.601  0.0000E+00  0.2000E+02
    -23.583  0.0000E+00  0.2000E+02
    -23.565  0.0000E+00  0.2000E+02
    -23.547  0.0000E+00  0.2000E+02
    -23.528  0.0000E+00  0.2000E+02
    -23.510  0.0000E+00  0.2000E+02
    -23.492  0.0000E+00  0.2000E+02
    -23.474  0.0000E+00  0.2000E+02
    -23.456  0.0000E+00  0.2000E+02
    -23.438  0.0000E+00  0.2000E+02
    -23.420  0.0000E+00  0.2000E+02
    -23.402  0.0000E+00  0.2000E+02
    -23.384  0.0000E+00  0.2000E+02
    -23.366  0.0000E+00  0.2000E+02
    -23.348  0.0000E+00  0.2000E+02
    -23.330  0.0000E+00  0.2000E+02
    -23.312  0.0000E+00  0.2000E+02
    -23.294  0.0000E+00  0.2000E+02
    -23.275  0.0000E+00  0.2000E+02
    -23.257  0.0000E+00  0.2000E+02
    -23.239  0.0000E+00  0.2000E+02
    -23.221  0.0000E+00  0.2000E+02
    -23.203  0.0000E+00  0.2000E+02
    -23.185  0.0000E+00  0.2000E+02
    -23.167  0.0000E+00  0.2000E+02
    -23.149  0.0000E+00  0.2000E+02
    -23.131  0.0000E+00  0.2000E+02
    -23.113  0.0000E+00  0.2000E+02
    -23.095  0.0000E+00  0.2000E+02
    -23.077  0.0000E+00  0.2000E+02
    -23.059  0.0000E+00  0.2000E+02
    -23.041  0.0000E+00  0.2000E+02
    -23.022  0.0000E+00  0.2000E+02
    -23.004  0.0000E+00  0.2000E+02
    -22.986  0.0000E+00  0.2000E+02
    -22.968  0.0000E+00  0.2000E+02
    -22.950  0.0000E+00  0.2000E+02
    -22.932  0.0000E+00  0.2000E+02
    -22.914  0.0000E+00  0.2000E+02
    -22.896  0.0000E+00  0.2000E+02
    -22.878  0.0000E+00  0.2000E+02
    -22.860  0.0000E+00  0.2000E+02
    -22.842  0.0000E+00  0.2000E+02
    -22.824  0.0000E+00  0.2000E+02
    -22.806  0.0000E+00  0.2000E+02
    -22.788  0.0000E+00  0.2000E+02
    -22.769  0.0000E+00  0.2000E+02
    -22.751  0.0000E+00  0.2000E+02
    -22.733  0.0000E+00  0.2000E+02
    -22.715  0.0000E+00  0.2000E+02
    -22.697  0.0000E+00  0.2000E+02
    -22.679  0.0000E+00  0.2000E+02
    -22.661  0.0000E+00  0.2000E+02
    -22.643  0.0000E+00  0.2000E+02
    -22.625  0.0000E+00  0.2000E+02
    -22.607  0.0000E+00  0.2000E+02
    -22.589  0.0000E+00  0.2000E+02
    -22.571  0.0000E+00  0.2000E+02
    -22.553  0.0000E+00  0.2000E+02
    -22.535  0.0000E+00  0.2000E+02
    -22.516  0.0000E+00  0.2000E+02
    -22.498  0.0000E+00  0.2000E+02
    -22.480  0.0000E+00  0.2000E+02
    -22.462  0.0000E+00  0.2000E+02
    -22.444  0.0000E+00  0.2000E+02
    -22.426  0.0000E+00  0.2000E+02
    -22.408  0.0000E+00  0.2000E+02
    -22.390  0.0000E+00  0.2000E+02
    -22.372  0.0000E+00  0.2000E+02
    -22.354  0.0000E+00  0.2000E+02
    -22.336  0.0000E+00  0.2000E+02
    -22.318  0.0000E+00  0.2000E+02
    -22.300  0.0000E+00  0.2000E+02
    -22.282  0.0000E+00  0.2000E+02
    -22.263  0.0000E+00  0.2000E+02
    -22.245  0.0000E+00  0.2000E+02
    -22.227  0.0000E+00  0.2000E+02
    -22.209  0.0000E+00  0.2000E+02
    -22.191  0.0000E+00  0.2000E+02
    -22.173  0.0000E+00  0.2000E+02
    -22.155  0.0000E+00  0.2000E+02
    -22.137  0.0000E+00  0.2000E+02
    -22.119  0.0000E+00  0.2000E+02
    -22.101  0.0000E+00  0.2000E+02
    -22.083  0.0000E+00  0.2000E+02
    -22.065  0.0000E+00  0.2000E+02
    -22.047  0.0000E+00  0.2000E+02
    -22.029  0.0000E+00  0.2000E+02
    -22.010  0.0000E+00  0.2000E+02
    -21.992  0.0000E+00  0.2000E+02
    -21.974  0.0000E+00  0.2000E+02
    -21.956  0.0000E+00  0.2000E+02
    -21.938  0.0000E+00  0.2000E+02
    -21.920  0.0000E+00  0.2000E+02
    -21.902  0.0000E+00  0.2000E+02
    -21.884  0.0000E+00  0.2000E+02
    -21.866  0.0000E+00  0.2000E+02
    -21.848  0.0000E+00  0.2000E+02
    -21.830  0.0000E+00  0.2000E+02
    -21.812  0.0000E+00  0.2000E+02
    -21.794  0.0000E+00  0.2000E+02
    -21.776  0.0000E+00  0.2000E+02
    -21.757  0.0000E+00  0.2000E+02
    -21.739  0.0000E+00  0.2000E+02
    -21.721  0.0000E+00  0.2000E+02
    -21.703  0.0000E+00  0.2000E+02
    -21.685  0.0000E+00  0.2000E+02
    -21.667  0.0000E+00  0.2000E+02
    -21.649  0.0000E+00  0.2000E+02
    -21.631  0.0000E+00  0.2000E+02
    -21.613  0.0000E+00  0.2000E+02
    -21.595  0.0000E+00  0.2000E+02
    -21.577  0.0000E+00  0.2000E+02
    -21.559  0.0000E+00  0.2000E+02
    -21.541  0.0000E+00  0.2000E+02
    -21.523  0.0000E+00  0.2000E+02
    -21.504  0.0000E+00  0.2000E+02
    -21.486  0.0000E+00  0.2000E+02
    -21.468  0.0000E+00  0.2000E+02
    -21.450  0.0000E+00  0.2000E+02
    -21.432  0.0000E+00  0.2000E+02
    -21.414  0.0000E+00  0.2000E+02
    -21.396  0.0000E+00  0.2000E+02
    -21.378  0.0000E+00  0.2000E+02
    -21.360  0.0000E+00  0.2000E+02
    -21.342  0.0000E+00  0.2000E+02
    -21.324  0.0000E+00  0.2000E+02
    -21.306  0.0000E+00  0.2000E+02
    -21.288  0.0000E+00  0.2000E+02
    -21.270  0.0000E+00  0.2000E+02
    -21.251  0.0000E+00  0.2000E+02
    -21.233  0.0000E+00  0.2000E+02
    -21.215  0.0000E+00  0.2000E+02
    -21.197  0.0000E+00  0.2000E+02
    -21.179  0.0000E+00  0.2000E+02
    -21.161  0.0000E+00  0.2000E+02
    -21.143  0.0000E+00  0.2000E+02
    -21.125  0.0000E+00  0.2000E+02
    -21.107  0.0000E+00  0.2000E+02
    -21.089  0.0000E+00  0.2000E+02
    -21.071  0.0000E+00  0.2000E+02
    -21.053  0.0000E+00  0.2000E+02
    -21.035  0.0000E+00  0.2000E+02
    -21.017  0.0000E+00  0.2000E+02
    -20.998  0.0000E+00  0.2000E+02
    -20.980  0.0000E+00  0.2000E+02
    -20.962  0.0000E+00  0.2000E+02
    -20.944  0.0000E+00  0.2000E+02
    -20.926  0.0000E+00  0.2000E+02
    -20.908  0.0000E+00  0.2000E+02
    -20.890  0.0000E+00  0.2000E+02
    -20.872  0.0000E+00  0.2000E+02
    -20.854  0.0000E+00  0.2000E+02
    -20.836  0.0000E+00  0.2000E+02
    -20.818  0.0000E+00  0.2000E+02
    -20.800  0.0000E+00  0.2000E+02
    -20.782  0.0000E+00  0.2000E+02
    -20.764  0.0000E+00  0.2000E+02
    -20.745  0.0000E+00  0.2000E+02
    -20.727  0.0000E+00  0.2000E+02
    -20.709  0.0000E+00  0.2000E+02
    -20.691  0.0000E+00  0.2000E+02
    -20.673  0.0000E+00  0.2000E+02
    -20.655  0.0000E+00  0.2000E+02
    -20.637  0.0000E+00  0.2000E+02
    -20.619  0.0000E+00  0.2000E+02
    -20.601  0.0000E+00  0.2000E+02
    -20.583  0.0000E+00  0.2000E+02
    -20.565  0.0000E+00  0.2000E+02
    -20.547  0.0000E+00  0.2000E+02
    -20.529  0.0000E+00  0.2000E+02
    -20.511  0.0000E+00  0.2000E+02
    -20.492  0.0000E+00  0.2000E+02
    -20.474  0.0000E+00  0.2000E+02
    -20.456  0.0000E+00  0.2000E+02
    -20.438  0.0000E+00  0.2000E+02
    -20.420  0.0000E+00  0.2000E+02
    -20.402  0.0000E+00  0.2000E+02
    -20.384  0.0000E+00  0.2000E+02
    -20.366  0.0000E+00  0.2000E+02
    -20.348  0.0000E+00  0.2000E+02
    -20.330  0.0000E+00  0.2000E+02
    -20.312  0.0000E+00  0.2000E+02
    -20.294  0.0000E+00  0.2000E+02
    -20.276  0.0000E+00  0.2000E+02
    -20.258  0.0000E+00  0.2000E+02
    -20.239  0.0000E+00  0.2000E+02
    -20.221  0.0000E+00  0.2000E+02
    -20.203  0.0000E+00  0.2000E+02
    -20.185  0.0000E+00  0.2000E+02
    -20.167  0.0000E+00  0.2000E+02
    -20.149  0.0000E+00  0.2000E+02
    -20.131  0.0000E+00  0.2000E+02
    -20.113  0.0000E+00  0.2000E+02
    -20.095  0.0000E+00  0.2000E+02
    -20.077  0.0000E+00  0.2000E+02
    -20.059  0.0000E+00  0.2000E+02
    -20.041  0.0000E+00  0.2000E+02
    -20.023  0.0000E+00  0.2000E+02
    -20.005  0.0000E+00  0.2000E+02
    -19.986  0.0000E+00  0.2000E+02
    -19.968  0.0000E+00  0.2000E+02
    -19.950  0.0000E+00  0.2000E+02
    -19.932  0.0000E+00  0.2000E+02
    -19.914  0.0000E+00  0.2000E+02
    -19.896  0.0000E+00  0.2000E+02
    -19.878  0.0000E+00  0.2000E+02
    -19.860  0.0000E+00  0.2000E+02
    -19.842  0.0000E+00  0.2000E+02
    -19.824  0.0000E+00  0.2000E+02
    -19.806  0.0000E+00  0.2000E+02
    -19.788  0.0000E+00  0.2000E+02
    -19.770  0.0000E+00  0.2000E+02
    -19.752  0.0000E+00  0.2000E+02
    -19.733  0.0000E+00  0.2000E+02
    -19.715  0.0000E+00  0.2000E+02
    -19.697  0.0000E+00  0.2000E+02
    -19.679  0.0000E+00  0.2000E+02
    -19.661  0.0000E+00  0.2000E+02
    -19.643  0.0000E+00  0.2000E+02
    -19.625  0.0000E+00  0.2000E+02
    -19.607  0.0000E+00  0.2000E+02
    -19.589  0.0000E+00  0.2000E+02
    -19.571  0.0000E+00  0.2000E+02
    -19.553  0.0000E+00  0.2000E+02
    -19.535  0.0000E+00  0.2000E+02
    -19.517  0.0000E+00  0.2000E+02
    -19.499  0.0000E+00  0.2000E+02
    -19.480  0.0000E+00  0.2000E+02
    -19.462  0.0000E+00  0.2000E+02
    -19.444  0.0000E+00  0.2000E+02
    -19.426  0.0000E+00  0.2000E+02
    -19.408  0.0000E+00  0.2000E+02
    -19.390  0.0000E+00  0.2000E+02
    -19.372  0.0000E+00  0.2000E+02
    -19.354  0.0000E+00  0.2000E+02
    -19.336  0.0000E+00  0.2000E+02
    -19.318  0.0000E+00  0.2000E+02
    -19.300  0.0000E+00  0.2000E+02
    -19.282  0.0000E+00  0.2000E+02
    -19.264  0.0000E+00  0.2000E+02
    -19.246  0.0000E+00  0.2000E+02
    -19.227  0.0000E+00  0.2000E+02
    -19.209  0.0000E+00  0.2000E+02
    -19.191  0.0000E+00  0.2000E+02
    -19.173  0.0000E+00  0.2000E+02
    -19.155  0.0000E+00  0.2000E+02
    -19.137  0.0000E+00  0.2000E+02
    -19.119  0.0000E+00  0.2000E+02
    -19.101  0.0000E+00  0.2000E+02
    -19.083  0.0000E+00  0.2000E+02
    -19.065  0.0000E+00  0.2000E+02
    -19.047  0.0000E+00  0.2000E+02
    -19.029  0.0000E+00  0.2000E+02
    -19.011  0.0000E+00  0.2000E+02
    -18.993  0.0000E+00  0.2000E+02
    -18.974  0.0000E+00  0.2000E+02
    -18.956  0.0000E+00  0.2000E+02
    -18.938  0.0000E+00  0.2000E+02
    -18.920  0.0000E+00  0.2000E+02
    -18.902  0.0000E+00  0.2000E+02
    -18.884  0.0000E+00  0.2000E+02
    -18.866  0.0000E+00  0.2000E+02
    -18.848  0.0000E+00  0.2000E+02
    -18.830  0.0000E+00  0.2000E+02
    -18.812  0.0000E+00  0.2000E+02
    -18.794  0.0000E+00  0.2000E+02
    -18.776  0.0000E+00  0.2000E+02
    -18.758  0.0000E+00  0.2000E+02
    -18.740  0.0000E+00  0.2000E+02
    -18.721  0.0000E+00  0.2000E+02
    -18.703  0.0000E+00  0.2000E+02
    -18.685  0.0000E+00  0.2000E+02
    -18.667  0.0000E+00  0.2000E+02
    -18.649  0.0000E+00  0.2000E+02
    -18.631  0.0000E+00  0.2000E+02
    -18.613  0.0000E+00  0.2000E+02
    -18.595  0.0000E+00  0.2000E+02
    -18.577  0.0000E+00  0.2000E+02
    -18.559  0.0000E+00  0.2000E+02
    -18.541  0.0000E+00  0.2000E+02
    -18.523  0.0000E+00  0.2000E+02
    -18.505  0.0000E+00  0.2000E+02
    -18.487  0.0000E+00  0.2000E+02
    -18.469  0.0000E+00  0.2000E+02
    -18.450  0.0000E+00  0.2000E+02
    -18.432  0.0000E+00  0.2000E+02
    -18.414  0.0000E+00  0.2000E+02
    -18.396  0.0000E+00  0.2000E+02
    -18.378  0.0000E+00  0.2000E+02
    -18.360  0.0000E+00  0.2000E+02
    -18.342  0.0000E+00  0.2000E+02
    -18.324  0.0000E+00  0.2000E+02
    -18.306  0.0000E+00  0.2000E+02
    -18.288  0.0000E+00  0.2000E+02
    -18.270  0.0000E+00  0.2000E+02
    -18.252  0.0000E+00  0.2000E+02
    -18.234  0.0000E+00  0.2000E+02
    -18.216  0.0000E+00  0.2000E+02
    -18.197  0.0000E+00  0.2000E+02
    -18.179  0.0000E+00  0.2000E+02
    -18.161  0.0000E+00  0.2000E+02
    -18.143  0.0000E+00  0.2000E+02
    -18.125  0.0000E+00  0.2000E+02
    -18.107  0.0000E+00  0.2000E+02
    -18.089  0.0000E+00  0.2000E+02
    -18.071  0.0000E+00  0.2000E+02
    -18.053  0.0000E+00  0.2000E+02
    -18.035  0.0000E+00  0.2000E+02
    -18.017  0.0000E+00  0.2000E+02
    -17.999  0.0000E+00  0.2000E+02
    -17.981  0.0000E+00  0.2000E+02
    -17.963  0.0000E+00  0.2000E+02
    -17.944  0.0000E+00  0.2000E+02
    -17.926  0.0000E+00  0.2000E+02
    -17.908  0.0000E+00  0.2000E+02
    -17.890  0.0000E+00  0.2000E+02
    -17.872  0.0000E+00  0.2000E+02
    -17.854  0.0000E+00  0.2000E+02
    -17.836  0.0000E+00  0.2000E+02
    -17.818  0.0000E+00  0.2000E+02
    -17.800  0.0000E+00  0.2000E+02
    -17.782  0.0000E+00  0.2000E+02
    -17.764  0.0000E+00  0.2000E+02
    -17.746  0.0000E+00  0.2000E+02
    -17.728  0.0000E+00  0.2000E+02
    -17.710  0.0000E+00  0.2000E+02
    -17.691  0.0000E+00  0.2000E+02
    -17.673  0.0000E+00  0.2000E+02
    -17.655  0.0000E+00  0.2000E+02
    -17.637  0.0000E+00  0.2000E+02
    -17.619  0.0000E+00  0.2000E+02
    -17.601  0.0000E+00  0.2000E+02
    -17.583  0.0000E+00  0.2000E+02
    -17.565  0.0000E+00  0.2000E+02
    -17.547  0.0000E+00  0.2000E+02
    -17.529  0.0000E+00  0.2000E+02
    -17.511  0.0000E+00  0.2000E+02
    -17.493  0.0000E+00  0.2000E+02
    -17.475  0.0000E+00  0.2000E+02
    -17.457  0.0000E+00  0.2000E+02
    -17.438  0.1233E-15  0.2000E+02
    -17.420  0.7928E-14  0.2000E+02
    -17.402  0.3807E-12  0.2000E+02
    -17.384  0.1418E-10  0.2000E+02
    -17.366  0.4104E-09  0.2000E+02
    -17.348  0.9229E-08  0.2000E+02
    -17.330  0.1615E-06  0.2000E+02
    -17.312  0.2203E-05  0.2000E+02
    -17.294  0.2346E-04  0.2000E+02
    -17.276  0.1953E-03  0.2000E+02
    -17.258  0.1276E-02  0.2000E+02
    -17.240  0.6555E-02  0.2000E+02
    -17.222  0.2662E-01  0.2000E+02
    -17.204  0.8598E-01  0.2000E+02
    -17.185  0.2226E+00  0.2001E+02
    -17.167  0.4676E+00  0.2001E+02
    -17.149  0.8097E+00  0.2003E+02
    -17.131  0.1182E+01  0.2005E+02
    -17.113  0.1498E+01  0.2008E+02
    -17.095  0.1708E+01  0.2011E+02
    -17.077  0.1818E+01  0.2014E+02
    -17.059  0.1865E+01  0.2018E+02
    -17.041  0.1883E+01  0.2021E+02
    -17.023  0.1892E+01  0.2024E+02
    -17.005  0.1898E+01  0.2028E+02
    -16.987  0.1903E+01  0.2031E+02
    -16.969  0.1909E+01  0.2035E+02
    -16.951  0.1915E+01  0.2038E+02
    -16.932  0.1921E+01  0.2042E+02
    -16.914  0.1926E+01  0.2045E+02
    -16.896  0.1932E+01  0.2049E+02
    -16.878  0.1939E+01  0.2052E+02
    -16.860  0.1945E+01  0.2056E+02
    -16.842  0.1951E+01  0.2059E+02
    -16.824  0.1958E+01  0.2063E+02
    -16.806  0.1964E+01  0.2066E+02
    -16.788  0.1971E+01  0.2070E+02
    -16.770  0.1978E+01  0.2073E+02
    -16.752  0.1985E+01  0.2077E+02
    -16.734  0.1992E+01  0.2081E+02
    -16.716  0.2000E+01  0.2084E+02
    -16.698  0.2007E+01  0.2088E+02
    -16.679  0.2015E+01  0.2091E+02
    -16.661  0.2023E+01  0.2095E+02
    -16.643  0.2031E+01  0.2099E+02
    -16.625  0.2039E+01  0.2102E+02
    -16.607  0.2048E+01  0.2106E+02
    -16.589  0.2056E+01  0.2110E+02
    -16.571  0.2065E+01  0.2114E+02
    -16.553  0.2074E+01  0.2117E+02
    -16.535  0.2083E+01  0.2121E+02
    -16.517  0.2093E+01  0.2125E+02
    -16.499  0.2103E+01  0.2129E+02
    -16.481  0.2113E+01  0.2132E+02
    -16.463  0.2123E+01  0.2136E+02
    -16.445  0.2133E+01  0.2140E+02
    -16.426  0.2144E+01  0.2144E+02
    -16.408  0.2155E+01  0.2148E+02
    -16.390  0.2167E+01  0.2152E+02
    -16.372  0.2178E+01  0.2156E+02
    -16.354  0.2191E+01  0.2160E+02
    -16.336  0.2203E+01  0.2164E+02
    -16.318  0.2216E+01  0.2168E+02
    -16.300  0.2229E+01  0.2172E+02
    -16.282  0.2243E+01  0.2176E+02
    -16.264  0.2255E+01  0.2180E+02
    -16.246  0.2268E+01  0.2184E+02
    -16.228  0.2282E+01  0.2188E+02
    -16.210  0.2297E+01  0.2192E+02
    -16.192  0.2315E+01  0.2196E+02
    -16.173  0.2341E+01  0.2201E+02
    -16.155  0.2393E+01  0.2205E+02
    -16.137  0.2509E+01  0.2210E+02
    -16.119  0.2741E+01  0.2214E+02
    -16.101  0.3122E+01  0.2220E+02
    -16.083  0.3621E+01  0.2227E+02
    -16.065  0.4135E+01  0.2234E+02
    -16.047  0.4556E+01  0.2242E+02
    -16.029  0.4833E+01  0.2251E+02
    -16.011  0.4988E+01  0.2260E+02
    -15.993  0.5071E+01  0.2269E+02
    -15.975  0.5126E+01  0.2279E+02
    -15.957  0.5174E+01  0.2288E+02
    -15.939  0.5223E+01  0.2297E+02
    -15.920  0.5275E+01  0.2307E+02
    -15.902  0.5329E+01  0.2317E+02
    -15.884  0.5386E+01  0.2326E+02
    -15.866  0.5446E+01  0.2336E+02
    -15.848  0.5511E+01  0.2346E+02
    -15.830  0.5582E+01  0.2356E+02
    -15.812  0.5658E+01  0.2366E+02
    -15.794  0.5739E+01  0.2377E+02
    -15.776  0.5816E+01  0.2387E+02
    -15.758  0.5886E+01  0.2398E+02
    -15.740  0.5953E+01  0.2409E+02
    -15.722  0.6029E+01  0.2420E+02
    -15.704  0.6124E+01  0.2431E+02
    -15.686  0.6224E+01  0.2442E+02
    -15.667  0.6298E+01  0.2453E+02
    -15.649  0.6330E+01  0.2465E+02
    -15.631  0.6350E+01  0.2476E+02
    -15.613  0.6409E+01  0.2488E+02
    -15.595  0.6532E+01  0.2500E+02
    -15.577  0.6701E+01  0.2512E+02
    -15.559  0.6872E+01  0.2524E+02
    -15.541  0.6993E+01  0.2537E+02
    -15.523  0.7023E+01  0.2549E+02
    -15.505  0.6975E+01  0.2562E+02
    -15.487  0.6960E+01  0.2575E+02
    -15.469  0.7133E+01  0.2587E+02
    -15.451  0.7551E+01  0.2601E+02
    -15.433  0.8094E+01  0.2616E+02
    -15.414  0.8561E+01  0.2631E+02
    -15.396  0.8855E+01  0.2647E+02
    -15.378  0.9042E+01  0.2664E+02
    -15.360  0.9256E+01  0.2680E+02
    -15.342  0.9578E+01  0.2698E+02
    -15.324  0.1000E+02  0.2716E+02
    -15.306  0.1046E+02  0.2735E+02
    -15.288  0.1088E+02  0.2754E+02
    -15.270  0.1119E+02  0.2774E+02
    -15.252  0.1136E+02  0.2795E+02
    -15.234  0.1140E+02  0.2816E+02
    -15.216  0.1144E+02  0.2836E+02
    -15.198  0.1168E+02  0.2857E+02
    -15.180  0.1234E+02  0.2880E+02
    -15.161  0.1354E+02  0.2904E+02
    -15.143  0.1510E+02  0.2931E+02
    -15.125  0.1640E+02  0.2961E+02
    -15.107  0.1671E+02  0.2991E+02
    -15.089  0.1573E+02  0.3020E+02
    -15.071  0.1384E+02  0.3045E+02
    -15.053  0.1177E+02  0.3066E+02
    -15.035  0.1004E+02  0.3084E+02
    -15.017  0.8804E+01  0.3100E+02
    -14.999  0.7964E+01  0.3114E+02
    -14.981  0.7374E+01  0.3128E+02
    -14.963  0.6934E+01  0.3140E+02
    -14.945  0.6579E+01  0.3152E+02
    -14.927  0.6229E+01  0.3163E+02
    -14.908  0.5760E+01  0.3174E+02
    -14.890  0.5025E+01  0.3183E+02
    -14.872  0.3972E+01  0.3190E+02
    -14.854  0.2736E+01  0.3195E+02
    -14.836  0.1591E+01  0.3198E+02
    -14.818  0.7624E+00  0.3199E+02
    -14.800  0.2963E+00  0.3200E+02
    -14.782  0.9225E-01  0.3200E+02
    -14.764  0.2282E-01  0.3200E+02
    -14.746  0.4460E-02  0.3200E+02
    -14.728  0.6853E-03  0.3200E+02
    -14.710  0.8255E-04  0.3200E+02
    -14.692  0.7774E-05  0.3200E+02
    -14.674  0.5712E-06  0.3200E+02
    -14.655  0.3270E-07  0.3200E+02
    -14.637  0.1456E-08  0.3200E+02
    -14.619  0.5041E-10  0.3200E+02
    -14.601  0.1355E-11  0.3200E+02
    -14.583  0.2824E-13  0.3200E+02
    -14.565  0.3573E-15  0.3200E+02
    -14.547  0.0000E+00  0.3200E+02
    -14.529  0.0000E+00  0.3200E+02
    -14.511  0.0000E+00  0.3200E+02
    -14.493  0.0000E+00  0.3200E+02
    -14.475  0.0000E+00  0.3200E+02
    -14.457  0.0000E+00  0.3200E+02
    -14.439  0.0000E+00  0.3200E+02
    -14.421  0.0000E+00  0.3200E+02
    -14.402  0.0000E+00  0.3200E+02
    -14.384  0.0000E+00  0.3200E+02
    -14.366  0.0000E+00  0.3200E+02
    -14.348  0.0000E+00  0.3200E+02
    -14.330  0.0000E+00  0.3200E+02
    -14.312  0.0000E+00  0.3200E+02
    -14.294  0.0000E+00  0.3200E+02
    -14.276  0.0000E+00  0.3200E+02
    -14.258  0.0000E+00  0.3200E+02
    -14.240  0.0000E+00  0.3200E+02
    -14.222  0.0000E+00  0.3200E+02
    -14.204  0.0000E+00  0.3200E+02
    -14.186  0.0000E+00  0.3200E+02
    -14.168  0.0000E+00  0.3200E+02
    -14.149  0.0000E+00  0.3200E+02
    -14.131  0.0000E+00  0.3200E+02
    -14.113  0.0000E+00  0.3200E+02
    -14.095  0.0000E+00  0.3200E+02
    -14.077  0.0000E+00  0.3200E+02
    -14.059  0.0000E+00  0.3200E+02
    -14.041  0.0000E+00  0.3200E+02
    -14.023  0.0000E+00  0.3200E+02
    -14.005  0.0000E+00  0.3200E+02
    -13.987  0.0000E+00  0.3200E+02
    -13.969  0.0000E+00  0.3200E+02
    -13.951  0.0000E+00  0.3200E+02
    -13.933  0.0000E+00  0.3200E+02
    -13.915  0.0000E+00  0.3200E+02
    -13.896  0.0000E+00  0.3200E+02
    -13.878  0.0000E+00  0.3200E+02